LAMMPS (18 Jun 2019)
# ---------- Initialize Simulation ---------------------
variable alat equal 3.92580364
variable xdim equal ${alat}*5
variable xdim equal 3.92580364*5
variable T equal 800
variable T2 equal ${T}
variable T2 equal 800
variable tstep equal 0.0001
variable runtime equal 100000
variable Srandomseed equal 1001

clear
units metal
dimension 3
boundary p p p
atom_style atomic

# ---------- Create Atomistic Structure ---------------------
lattice fcc ${alat}
lattice fcc 3.92580364
Lattice spacing in x,y,z = 3.9258 3.9258 3.9258
region whole block 0 ${xdim} 0 ${xdim} 0 ${xdim} units box
region whole block 0 19.6290182 0 ${xdim} 0 ${xdim} units box
region whole block 0 19.6290182 0 19.6290182 0 ${xdim} units box
region whole block 0 19.6290182 0 19.6290182 0 19.6290182 units box
create_box 2 whole
Created orthogonal box = (0 0 0) to (19.629 19.629 19.629)
  1 by 1 by 1 MPI processor grid
create_atoms 1 region whole
Created 500 atoms
  create_atoms CPU = 0.00030303 secs
create_atoms 2 random 1 1001 NULL
Created 1 atoms
  create_atoms CPU = 5.96046e-06 secs

mass 1 106.42
mass 2 1.

# ---------- Define Interatomic Potential ---------------------
pair_style	eam/alloy
pair_coeff * * PdH_zhou.eam.alloy Pd H

timestep ${tstep}
timestep 0.0001

# ----- perform MD -------
velocity all create ${T2} ${Srandomseed}
velocity all create 800 ${Srandomseed}
velocity all create 800 1001
fix 1 all nvt temp ${T} ${T} 0.2
fix 1 all nvt temp 800 ${T} 0.2
fix 1 all nvt temp 800 800 0.2

#----- end MD ------
thermo 100
thermo_style custom step lx atoms temp pe lx ly lz press pxx pyy pzz
thermo_modify lost ignore flush yes

dump 1 all custom 100 movies/*.chkpt id type mass x y z

run ${runtime}
run 100000
Neighbor list info ...
  update every 1 steps, delay 10 steps, check yes
  max neighbors/atom: 2000, page size: 100000
  master list distance cutoff = 7.35
  ghost atom cutoff = 7.35
  binsize = 3.675, bins = 6 6 6
  1 neighbor lists, perpetual/occasional/extra = 1 0 0
  (1) pair eam/alloy, perpetual
      attributes: half, newton on
      pair build: half/bin/atomonly/newton
      stencil: half/bin/3d/newton
      bin: standard
Per MPI rank memory allocation (min/avg/max) = 4.667 | 4.667 | 4.667 Mbytes
Step Lx Atoms Temp PotEng Lx Ly Lz Press Pxx Pyy Pzz 
       0    19.629018      501          800   -1952.3542    19.629018    19.629018    19.629018   -53916.332   -54076.886   -53853.192   -53818.919 
     100    19.629018      501    768.25689    -1950.302    19.629018    19.629018    19.629018   -51786.425   -51761.691   -51684.421   -51913.162 
     200    19.629018      501    661.58284   -1943.3962    19.629018    19.629018    19.629018   -45198.778   -45310.465   -45343.521   -44942.346 
     300    19.629018      501    519.14916   -1934.1484    19.629018    19.629018    19.629018   -36527.951   -36701.523   -36323.856   -36558.474 
     400    19.629018      501    371.82179   -1924.5452    19.629018    19.629018    19.629018   -28361.578   -28495.706   -28461.357   -28127.673 
     500    19.629018      501    258.55683   -1917.1153    19.629018    19.629018    19.629018   -22213.526   -22224.417   -22424.677   -21991.484 
     600    19.629018      501     205.8112   -1913.5767    19.629018    19.629018    19.629018    -18752.62   -18558.343   -19130.309   -18569.207 
     700    19.629018      501    213.01858   -1913.8816    19.629018    19.629018    19.629018   -18303.372   -18279.163   -18603.426   -18027.526 
     800    19.629018      501      269.269    -1917.291    19.629018    19.629018    19.629018   -20324.199   -20154.826   -20559.512   -20258.259 
     900    19.629018      501    334.39862   -1921.1989    19.629018    19.629018    19.629018   -23055.316    -22777.31   -23299.969   -23088.669 
    1000    19.629018      501    385.33977    -1924.149    19.629018    19.629018    19.629018   -24810.859   -24814.624   -24964.708   -24653.244 
    1100    19.629018      501    406.95944   -1925.2084    19.629018    19.629018    19.629018    -25385.51   -25395.868   -25525.927   -25234.735 
    1200    19.629018      501    398.18867   -1924.3354    19.629018    19.629018    19.629018   -24721.151   -24818.684   -24760.511   -24584.258 
    1300    19.629018      501    367.09482   -1922.0523    19.629018    19.629018    19.629018   -23006.865   -23403.402   -23066.859   -22550.334 
    1400    19.629018      501    338.42697   -1919.9467    19.629018    19.629018    19.629018   -21581.157   -21775.119   -21486.586   -21481.766 
    1500    19.629018      501    325.09376   -1918.8361    19.629018    19.629018    19.629018    -21128.16   -21511.232   -20995.534   -20877.715 
    1600    19.629018      501    333.32749   -1919.1019    19.629018    19.629018    19.629018   -21594.934   -22091.053   -21506.456   -21187.292 
    1700    19.629018      501    373.11549   -1921.3665    19.629018    19.629018    19.629018   -23517.429   -23732.809   -23344.949   -23474.528 
    1800    19.629018      501    426.63327   -1924.4616    19.629018    19.629018    19.629018   -26228.907   -26229.771   -26066.186   -26390.763 
    1900    19.629018      501    486.55334   -1927.9104    19.629018    19.629018    19.629018   -29045.381   -28843.791   -29075.798   -29216.555 
    2000    19.629018      501    532.46777   -1930.4082    19.629018    19.629018    19.629018   -31379.134   -31333.214   -31211.873   -31592.315 
    2100    19.629018      501    556.02224   -1931.4401    19.629018    19.629018    19.629018   -32227.795   -31957.857   -32154.678    -32570.85 
    2200    19.629018      501    551.01044   -1930.6274    19.629018    19.629018    19.629018   -31563.347   -31209.434   -31565.989   -31914.617 
    2300    19.629018      501    523.03297   -1928.3508    19.629018    19.629018    19.629018   -29791.792   -29522.145    -29750.14   -30103.092 
    2400    19.629018      501    487.56908   -1925.6162    19.629018    19.629018    19.629018   -27448.516   -26953.386   -27678.621   -27713.543 
    2500    19.629018      501    451.60564   -1922.8712    19.629018    19.629018    19.629018   -25308.302    -24841.11   -25835.735   -25248.061 
    2600    19.629018      501    432.69427   -1921.2385    19.629018    19.629018    19.629018   -23762.038   -23297.969   -24522.958   -23465.187 
    2700    19.629018      501    432.05033   -1920.7805    19.629018    19.629018    19.629018   -22936.903   -22467.248   -23770.533   -22572.929 
    2800    19.629018      501    443.95059   -1921.1162    19.629018    19.629018    19.629018    -22748.38   -22135.562   -23642.352   -22467.226 
    2900    19.629018      501    459.80261   -1921.6857    19.629018    19.629018    19.629018   -22844.651   -22148.245   -23739.368   -22646.339 
    3000    19.629018      501    475.15318   -1922.2035    19.629018    19.629018    19.629018   -22948.148   -22282.816   -23658.695   -22902.933 
    3100    19.629018      501     479.8409   -1922.0236    19.629018    19.629018    19.629018   -22616.512    -21953.82   -23270.233   -22625.482 
    3200    19.629018      501    476.31837   -1921.3144    19.629018    19.629018    19.629018   -22006.287   -21523.291   -22428.945   -22066.625 
    3300    19.629018      501    465.46538   -1920.1374    19.629018    19.629018    19.629018   -21073.274   -21044.918    -21031.81   -21143.094 
    3400    19.629018      501    459.51843    -1919.284    19.629018    19.629018    19.629018   -20194.286   -20364.955   -20055.095   -20162.808 
    3500    19.629018      501    455.85282   -1918.5785    19.629018    19.629018    19.629018   -19646.674   -19929.931   -19321.511   -19688.582 
    3600    19.629018      501    460.67123   -1918.4162    19.629018    19.629018    19.629018   -19476.535   -20063.771   -18820.328   -19545.505 
    3700    19.629018      501    475.53053    -1918.889    19.629018    19.629018    19.629018   -19736.671   -20479.763    -19105.21   -19625.039 
    3800    19.629018      501    493.32828   -1919.5339    19.629018    19.629018    19.629018   -20361.228   -21133.264   -19782.437   -20167.983 
    3900    19.629018      501    513.07587   -1920.2868    19.629018    19.629018    19.629018   -21023.909   -21925.889   -20550.114   -20595.724 
    4000    19.629018      501    525.67758   -1920.5657    19.629018    19.629018    19.629018    -21352.28   -22351.685   -21007.818   -20697.336 
    4100    19.629018      501    535.30594   -1920.6456    19.629018    19.629018    19.629018   -21417.182   -22236.566   -21607.968   -20407.012 
    4200    19.629018      501    537.37016   -1920.2362    19.629018    19.629018    19.629018   -21175.268   -21819.419   -21908.948   -19797.436 
    4300    19.629018      501    540.38917   -1919.8891    19.629018    19.629018    19.629018   -21026.299   -21119.742   -21953.142   -20006.014 
    4400    19.629018      501    540.49908   -1919.3546    19.629018    19.629018    19.629018   -20761.097   -20559.042   -21896.835   -19827.414 
    4500    19.629018      501      544.547   -1919.0729    19.629018    19.629018    19.629018   -20556.948   -20049.438   -21853.923   -19767.482 
    4600    19.629018      501     548.6173   -1918.7891    19.629018    19.629018    19.629018   -19978.763   -19181.484   -21365.035   -19389.772 
    4700    19.629018      501    557.13807   -1918.7873    19.629018    19.629018    19.629018   -19712.391   -18801.898   -20761.645   -19573.631 
    4800    19.629018      501    560.36317   -1918.4382    19.629018    19.629018    19.629018   -19216.769   -18342.774   -19891.822   -19415.712 
    4900    19.629018      501    560.34485   -1917.8788    19.629018    19.629018    19.629018   -18680.123   -17654.221   -19254.485   -19131.664 
    5000    19.629018      501     555.1133   -1916.9861    19.629018    19.629018    19.629018   -17897.918   -17182.926   -18144.492   -18366.335 
    5100    19.629018      501    549.57094    -1916.078    19.629018    19.629018    19.629018   -17051.619   -16490.458   -16700.573   -17963.824 
    5200    19.629018      501    545.10178   -1915.2432    19.629018    19.629018    19.629018   -16075.844   -15635.876   -15520.243   -17071.412 
    5300    19.629018      501    545.21342   -1914.7019    19.629018    19.629018    19.629018    -15251.84   -14714.988    -14830.85   -16209.681 
    5400    19.629018      501    549.83143   -1914.4466    19.629018    19.629018    19.629018   -15177.116   -14989.526   -14435.512   -16106.308 
    5500    19.629018      501    567.66567    -1915.033    19.629018    19.629018    19.629018   -15545.804   -15179.118   -15414.304    -16043.99 
    5600    19.629018      501    587.31785   -1915.7205    19.629018    19.629018    19.629018   -15874.186   -15560.228   -15706.047   -16356.284 
    5700    19.629018      501    603.44392   -1916.1686    19.629018    19.629018    19.629018   -15960.601   -15872.508    -15890.06   -16119.235 
    5800    19.629018      501    613.51632   -1916.2183    19.629018    19.629018    19.629018   -15735.833   -15770.679   -15979.987   -15456.833 
    5900    19.629018      501    612.26317   -1915.5396    19.629018    19.629018    19.629018   -15423.543   -15713.793     -15158.2   -15398.638 
    6000    19.629018      501    612.68225   -1914.9763    19.629018    19.629018    19.629018   -14949.526   -15252.894   -14834.601   -14761.082 
    6100    19.629018      501    605.29687   -1913.9164    19.629018    19.629018    19.629018   -14198.523   -14703.849   -13817.851   -14073.869 
    6200    19.629018      501    600.20037   -1913.0128    19.629018    19.629018    19.629018   -13482.341   -13968.433   -13077.023   -13401.568 
    6300    19.629018      501    602.89343   -1912.6131    19.629018    19.629018    19.629018   -13211.767   -13796.719   -12691.936   -13146.646 
    6400    19.629018      501    610.92123   -1912.5514    19.629018    19.629018    19.629018    -13199.42   -13802.119   -12608.214   -13187.926 
    6500    19.629018      501    620.68721    -1912.594    19.629018    19.629018    19.629018     -13420.6   -13576.386   -13037.593    -13647.82 
    6600    19.629018      501    635.01141   -1912.9232    19.629018    19.629018    19.629018   -13516.543   -13535.186   -13397.994   -13616.448 
    6700    19.629018      501    653.45931   -1913.5092    19.629018    19.629018    19.629018   -13828.689   -13580.216   -13771.205   -14134.645 
    6800    19.629018      501    665.45878   -1913.6736    19.629018    19.629018    19.629018    -13681.63   -13541.527   -13572.011   -13931.351 
    6900    19.629018      501    674.24936   -1913.6325    19.629018    19.629018    19.629018   -13294.573   -13079.491   -13030.933   -13773.296 
    7000    19.629018      501    679.55584    -1913.369    19.629018    19.629018    19.629018   -12890.837    -12550.12   -12535.516   -13586.876 
    7100    19.629018      501    676.22501   -1912.5555    19.629018    19.629018    19.629018   -12064.395   -12045.796   -11620.743   -12526.647 
    7200    19.629018      501    674.30487   -1911.8423    19.629018    19.629018    19.629018   -11335.679   -11505.018   -10425.357    -12076.66 
    7300    19.629018      501    667.47808   -1910.8216    19.629018    19.629018    19.629018    -10434.42   -10769.617   -9573.2712   -10960.371 
    7400    19.629018      501    657.02323   -1909.5745    19.629018    19.629018    19.629018   -9434.2737   -10147.498   -8570.1751   -9585.1477 
    7500    19.629018      501    656.23695   -1908.9569    19.629018    19.629018    19.629018   -8882.8582   -9473.9397     -7949.52   -9225.1148 
    7600    19.629018      501    654.58796   -1908.2831    19.629018    19.629018    19.629018   -8085.9249   -8581.9041   -7377.3776   -8298.4931 
    7700    19.629018      501    652.64752   -1907.5896    19.629018    19.629018    19.629018   -7393.6583   -7922.0128   -6688.5726   -7570.3894 
    7800    19.629018      501    646.40941   -1906.6193    19.629018    19.629018    19.629018   -6431.7095   -6865.0508   -5815.0668    -6615.011 
    7900    19.629018      501    637.48889   -1905.4796    19.629018    19.629018    19.629018   -5410.9602   -5933.6825   -4672.6435   -5626.5545 
    8000    19.629018      501    623.65056   -1904.0257    19.629018    19.629018    19.629018   -4512.0825   -5246.9346   -3359.6184   -4929.6946 
    8100    19.629018      501    619.20199   -1903.1812    19.629018    19.629018    19.629018      -3696.3   -4294.4336   -2687.7198   -4106.7467 
    8200    19.629018      501    619.30397   -1902.6253    19.629018    19.629018    19.629018   -3462.8995    -4419.915   -2334.4408   -3634.3426 
    8300    19.629018      501    635.77599    -1903.114    19.629018    19.629018    19.629018   -3934.4381   -4780.6372   -2648.4736   -4374.2036 
    8400    19.629018      501    655.63999   -1903.8058    19.629018    19.629018    19.629018   -4316.5751   -5407.8177   -3114.2607   -4427.6468 
    8500    19.629018      501    689.63369   -1905.3894    19.629018    19.629018    19.629018    -5281.936   -6072.2909   -4074.4991   -5699.0179 
    8600    19.629018      501    718.32745   -1906.6144    19.629018    19.629018    19.629018   -6339.9946   -6925.7523    -5434.946   -6659.2856 
    8700    19.629018      501    748.14956   -1907.9061    19.629018    19.629018    19.629018   -7547.1138   -7388.3303   -6917.8506   -8335.1604 
    8800    19.629018      501    772.05866   -1908.8196    19.629018    19.629018    19.629018   -8021.9552   -7581.0588   -7601.1852   -8883.6216 
    8900    19.629018      501    782.33213    -1908.865    19.629018    19.629018    19.629018   -7808.6054   -6803.4177    -7627.429   -8994.9695 
    9000    19.629018      501    783.98988   -1908.3779    19.629018    19.629018    19.629018   -7145.0238   -5990.5575   -7169.4645   -8275.0495 
    9100    19.629018      501    778.59503   -1907.4591    19.629018    19.629018    19.629018   -6342.6527    -5015.249   -6585.2438   -7427.4654 
    9200    19.629018      501    766.75897   -1906.1481    19.629018    19.629018    19.629018   -5115.2813   -3434.6126   -5593.8891   -6317.3422 
    9300    19.629018      501    760.24132   -1905.2007    19.629018    19.629018    19.629018   -4013.9728   -2657.3976   -4730.5965   -4653.9244 
    9400    19.629018      501    764.88858   -1904.9851    19.629018    19.629018    19.629018   -3569.2886   -2275.6607   -4435.8048   -3996.4003 
    9500    19.629018      501    773.29061    -1905.017    19.629018    19.629018    19.629018   -3518.9534   -2430.9392   -4647.6781    -3478.243 
    9600    19.629018      501    782.31912    -1905.094    19.629018    19.629018    19.629018   -3144.1795   -2300.2819   -4483.2921   -2648.9647 
    9700    19.629018      501    790.72251   -1905.1356    19.629018    19.629018    19.629018   -2387.8018   -1720.3544   -3633.1753   -1809.8758 
    9800    19.629018      501    786.69753   -1904.3867    19.629018    19.629018    19.629018   -1702.7058   -1417.4894   -2687.0543   -1003.5738 
    9900    19.629018      501    773.11334   -1903.0362    19.629018    19.629018    19.629018   -579.86383   -815.60037   -1207.3657    283.37455 
   10000    19.629018      501    747.14547   -1900.9028    19.629018    19.629018    19.629018    675.24152    -21.55426    459.98018    1587.2986 
   10100    19.629018      501    718.92556   -1898.6382    19.629018    19.629018    19.629018    2155.5692    1417.9628    1901.7214    3147.0234 
   10200    19.629018      501    697.34153   -1896.8087    19.629018    19.629018    19.629018    3484.1095    2896.0641    3171.3614    4384.9031 
   10300    19.629018      501    696.29855   -1896.2977    19.629018    19.629018    19.629018    3681.4705    3245.9623    3063.7611     4734.688 
   10400    19.629018      501    710.89133   -1896.7783    19.629018    19.629018    19.629018    3319.8369    3631.8334    2220.2736    4107.4038 
   10500    19.629018      501    736.75238   -1897.9651    19.629018    19.629018    19.629018     2556.062    3432.2146    1149.6432    3086.3283 
   10600    19.629018      501    765.97622   -1899.3489    19.629018    19.629018    19.629018    1417.3686    2684.3574   -175.73694    1743.4854 
   10700    19.629018      501    790.04164   -1900.3879    19.629018    19.629018    19.629018    825.42444     2785.543   -1107.6315    798.36182 
   10800    19.629018      501    810.26064   -1901.1793    19.629018    19.629018    19.629018    318.19799    2585.5526    -1849.367    218.40828 
   10900    19.629018      501    822.09073   -1901.4399    19.629018    19.629018    19.629018    218.99311    2634.0629   -1860.8277   -116.25591 
   11000    19.629018      501    824.56912   -1901.1146    19.629018    19.629018    19.629018    621.36554    3075.3905   -1272.6211    61.327178 
   11100    19.629018      501    817.99225   -1900.2271    19.629018    19.629018    19.629018    1069.5607    3325.4901   -289.20361    172.39566 
   11200    19.629018      501    808.93178   -1899.2019    19.629018    19.629018    19.629018    1733.5441    3700.3172    814.40138    685.91357 
   11300    19.629018      501    802.90428   -1898.3906    19.629018    19.629018    19.629018    2631.2951      4061.07     2287.468    1545.3474 
   11400    19.629018      501    805.44157   -1898.1444    19.629018    19.629018    19.629018    3015.0471    3918.6552    3406.1648    1720.3212 
   11500    19.629018      501    814.68761     -1898.34    19.629018    19.629018    19.629018    3083.4536    3711.7823    3878.7635    1659.8149 
   11600    19.629018      501    832.69474   -1899.1079    19.629018    19.629018    19.629018    2708.9633    3046.0742     3569.488    1511.3277 
   11700    19.629018      501     848.3514   -1899.7338    19.629018    19.629018    19.629018    2243.7844    2649.8042    2854.6635    1226.8854 
   11800    19.629018      501    862.58692   -1900.2846    19.629018    19.629018    19.629018    1897.0513    1900.0409    2465.3134    1325.7994 
   11900    19.629018      501    869.43354   -1900.3802    19.629018    19.629018    19.629018      1883.78     1668.413    2117.7382    1865.1887 
   12000    19.629018      501    871.06654   -1900.1658    19.629018    19.629018    19.629018    1912.9512    1645.2837    1687.9055    2405.6644 
   12100    19.629018      501    872.06145   -1899.9384    19.629018    19.629018    19.629018    2228.1098    1475.4692    1878.4728    3330.3875 
   12200    19.629018      501    872.26556   -1899.6874    19.629018    19.629018    19.629018    2779.7592    1608.0695    2407.4703    4323.7377 
   12300    19.629018      501    872.08864   -1899.4389    19.629018    19.629018    19.629018    3174.2154    1627.8988    2596.1108    5298.6365 
   12400    19.629018      501    871.60516   -1899.1976    19.629018    19.629018    19.629018    3518.7069    1716.5326    3059.1499    5780.4383 
   12500    19.629018      501    869.62034   -1898.8852    19.629018    19.629018    19.629018    3714.6569     1843.921    3261.4148    6038.6348 
   12600    19.629018      501    867.36259   -1898.5806    19.629018    19.629018    19.629018    3842.1021    1949.2555     3587.304    5989.7469 
   12700    19.629018      501    862.95632   -1898.1613    19.629018    19.629018    19.629018    4071.4141    2435.1044    4253.1014    5526.0366 
   12800    19.629018      501    859.53799   -1897.8285    19.629018    19.629018    19.629018    4523.6501     3195.557    4781.5203    5593.8731 
   12900    19.629018      501    851.69297   -1897.2306    19.629018    19.629018    19.629018    5226.4053    4274.2745    5636.6499    5768.2914 
   13000    19.629018      501     840.6433   -1896.4439    19.629018    19.629018    19.629018    5764.5489     5217.724    6080.4943    5995.4284 
   13100    19.629018      501    832.48762   -1895.8586    19.629018    19.629018    19.629018    6142.7756    6208.3881    6075.0602    6144.8785 
   13200    19.629018      501    827.73398   -1895.5045    19.629018    19.629018    19.629018    6616.6768    7222.7218     6263.827    6363.4818 
   13300    19.629018      501    824.46717   -1895.2559    19.629018    19.629018    19.629018    7025.2288    8326.3172     6333.062    6416.3071 
   13400    19.629018      501    821.35402   -1895.0255    19.629018    19.629018    19.629018    7302.6979    9048.0663     6098.049    6761.9785 
   13500    19.629018      501    819.18609   -1894.8633    19.629018    19.629018    19.629018    7473.7107    9708.3113    5875.5119    6837.3089 
   13600    19.629018      501    815.09033   -1894.5827    19.629018    19.629018    19.629018    7708.5429    10230.243    5694.1904    7201.1957 
   13700    19.629018      501    810.60753   -1894.2823    19.629018    19.629018    19.629018    7873.7918    10248.968    5641.1771    7731.2307 
   13800    19.629018      501    811.11757   -1894.3083    19.629018    19.629018    19.629018     7869.648    10216.053     5866.012    7526.8792 
   13900    19.629018      501    817.85554   -1894.7407    19.629018    19.629018    19.629018    7667.2239    9970.8233    5511.9506    7518.8979 
   14000    19.629018      501    819.34963   -1894.8399    19.629018    19.629018    19.629018    7323.7918    9281.8136    5494.5204    7195.0413 
   14100    19.629018      501    825.32613   -1895.2357    19.629018    19.629018    19.629018    6863.0434    8874.4618    4851.8894     6862.779 
   14200    19.629018      501    829.88889   -1895.5487    19.629018    19.629018    19.629018    6337.3729    8142.9168    4795.7917    6073.4102 
   14300    19.629018      501    832.27465   -1895.7312    19.629018    19.629018    19.629018    5877.6986    7260.6002    4933.3105    5439.1849 
   14400    19.629018      501    841.21539    -1896.349    19.629018    19.629018    19.629018    5084.9777    6217.5459    4460.9808    4576.4064 
   14500    19.629018      501    848.65315   -1896.8841    19.629018    19.629018    19.629018    4527.7629    5258.3142    4459.7362    3865.2383 
   14600    19.629018      501    854.74476   -1897.3495    19.629018    19.629018    19.629018    4233.2702    4429.3735     4626.298    3644.1391 
   14700    19.629018      501    857.37009   -1897.6102    19.629018    19.629018    19.629018    4349.8969    4034.5736    4880.2408    4134.8764 
   14800    19.629018      501    854.49675   -1897.5354    19.629018    19.629018    19.629018    4304.5678    3543.8609    4880.7465    4489.0959 
   14900    19.629018      501    847.24486   -1897.1956    19.629018    19.629018    19.629018    4378.1677    3186.4856    5110.9967     4837.021 
   15000    19.629018      501    829.93011   -1896.2195    19.629018    19.629018    19.629018    5368.0178    4329.9344    6090.5807    5683.5384 
   15100    19.629018      501    819.69663   -1895.7098    19.629018    19.629018    19.629018    6047.9262    4620.0004    6864.6198    6659.1583 
   15200    19.629018      501    810.15534   -1895.2488    19.629018    19.629018    19.629018    6747.2899    5243.2769    7231.3586    7767.2341 
   15300    19.629018      501    810.79115   -1895.4483    19.629018    19.629018    19.629018    6542.6111    5489.8284    6710.7749    7427.2301 
   15400    19.629018      501    817.80651   -1896.0648    19.629018    19.629018    19.629018    6269.3842    5402.9568    6199.2994    7205.8965 
   15500    19.629018      501    823.07796   -1896.5752    19.629018    19.629018    19.629018    5946.8313    5285.0459      5572.21    6983.2379 
   15600    19.629018      501    835.37152   -1897.5492    19.629018    19.629018    19.629018    5521.5202    5298.6793    4241.1852    7024.6961 
   15700    19.629018      501    838.87886   -1897.9679    19.629018    19.629018    19.629018    5187.9184    5193.9151    3624.9402       6744.9 
   15800    19.629018      501    834.24714   -1897.8731    19.629018    19.629018    19.629018    5317.8964    5332.0812    3319.1987    7302.4095 
   15900    19.629018      501    824.37905   -1897.4487    19.629018    19.629018    19.629018     5520.038    5377.4403    3399.6451    7783.0285 
   16000    19.629018      501    816.16121    -1897.135    19.629018    19.629018    19.629018     5532.511    5431.7647    3297.0896    7868.6786 
   16100    19.629018      501    811.18752    -1897.034    19.629018    19.629018    19.629018    5406.7639    5391.2771    3270.4683    7558.5462 
   16200    19.629018      501    807.96356    -1897.048    19.629018    19.629018    19.629018    5313.6738    5450.8847    3453.8246     7036.312 
   16300    19.629018      501    809.76797   -1897.3876    19.629018    19.629018    19.629018     4861.167    5366.5031    2959.9194    6257.0786 
   16400    19.629018      501    813.89681   -1897.8807    19.629018    19.629018    19.629018    4332.6138    5192.7295    2325.8096    5479.3024 
   16500    19.629018      501    820.19005   -1898.5181    19.629018    19.629018    19.629018    3733.0825    5073.8187    1542.1583    4583.2706 
   16600    19.629018      501    825.57783   -1899.1047    19.629018    19.629018    19.629018    3220.0161    4969.1219    867.55025    3823.3762 
   16700    19.629018      501    831.91642   -1899.7604    19.629018    19.629018    19.629018    2283.2149    3866.6378    38.499239    2944.5076 
   16800    19.629018      501    839.41839   -1900.5031    19.629018    19.629018    19.629018    1372.0478    2750.2464   -884.91431    2250.8112 
   16900    19.629018      501    850.31098   -1901.4796    19.629018    19.629018    19.629018    345.34382    1571.9908    -1598.066    1062.1066 
   17000    19.629018      501     858.3544   -1902.2908    19.629018    19.629018    19.629018   -475.36845    172.50176   -1750.0378    151.43069 
   17100    19.629018      501    869.22684   -1903.3068    19.629018    19.629018    19.629018   -1553.0536    -900.1544   -2850.1669   -908.83966 
   17200    19.629018      501    868.44224   -1903.5917    19.629018    19.629018    19.629018   -1887.6012   -1073.8938   -2922.0034   -1666.9064 
   17300    19.629018      501    863.77368   -1903.6451    19.629018    19.629018    19.629018    -1860.176   -1330.5259   -2443.2692    -1806.733 
   17400    19.629018      501    841.58512   -1902.5771    19.629018    19.629018    19.629018    -741.7037   -70.029362   -765.94217   -1389.1396 
   17500    19.629018      501    818.56127   -1901.4549    19.629018    19.629018    19.629018    370.73139    428.66242      1071.06   -387.52828 
   17600    19.629018      501    793.40127   -1900.1833    19.629018    19.629018    19.629018    1598.8948    1908.7854    2605.2882    282.61078 
   17700    19.629018      501    768.92405   -1898.9359    19.629018    19.629018    19.629018    2672.2762    2785.4938     3886.578    1344.7569 
   17800    19.629018      501    752.33965   -1898.1755    19.629018    19.629018    19.629018    3225.0723    3269.3305    4146.0834     2259.803 
   17900    19.629018      501    747.08952   -1898.1237    19.629018    19.629018    19.629018    3327.5397    3205.4636    4120.7509    2656.4046 
   18000    19.629018      501    747.77102    -1898.435    19.629018    19.629018    19.629018    3200.4005    2830.5804    3765.3442    3005.2769 
   18100    19.629018      501    761.37239   -1899.5653    19.629018    19.629018    19.629018    2461.3602    2242.1902    2692.1821    2449.7083 
   18200    19.629018      501    769.41391   -1900.3256    19.629018    19.629018    19.629018    1726.2236     1970.323    1391.9244    1816.4234 
   18300    19.629018      501    782.25685    -1901.389    19.629018    19.629018    19.629018    723.49994    831.73902   -103.14019     1441.901 
   18400    19.629018      501    785.17181    -1901.805    19.629018    19.629018    19.629018    146.97078    342.67083   -1301.6039    1399.8454 
   18500    19.629018      501    777.03885   -1901.5002    19.629018    19.629018    19.629018   -14.206525    602.89129   -2235.8776    1590.3667 
   18600    19.629018      501    772.45062   -1901.4145    19.629018    19.629018    19.629018   -209.41194    552.04098   -2928.3843    1748.1075 
   18700    19.629018      501    765.68121   -1901.1761    19.629018    19.629018    19.629018    47.956103    1136.7199   -3182.8267    2189.9752 
   18800    19.629018      501    760.09514   -1901.0008    19.629018    19.629018    19.629018    209.75462    1604.6111   -3072.5103    2097.1631 
   18900    19.629018      501    759.58665   -1901.1405    19.629018    19.629018    19.629018    85.200818    1357.0184   -2995.4143    1893.9983 
   19000    19.629018      501    759.63307   -1901.3029    19.629018    19.629018    19.629018   -161.07664      971.903   -2588.4583    1133.3254 
   19100    19.629018      501    757.67703   -1901.3227    19.629018    19.629018    19.629018   -216.92467    464.97767   -1855.5424    739.79074 
   19200    19.629018      501    753.85861   -1901.2086    19.629018    19.629018    19.629018   -97.361125    490.27343   -1109.6656    327.30882 
   19300    19.629018      501    761.65733   -1901.8324    19.629018    19.629018    19.629018   -306.23087   -833.34319   -235.84312    150.49371 
   19400    19.629018      501    769.51281   -1902.4491    19.629018    19.629018    19.629018   -883.44964   -1743.5883   -502.79765   -403.96295 
   19500    19.629018      501    780.92006   -1903.2866    19.629018    19.629018    19.629018   -1376.7604   -2836.3482   -790.27297   -503.65995 
   19600    19.629018      501    791.90179   -1904.0922    19.629018    19.629018    19.629018   -1991.1059   -3753.0321   -1237.7051   -982.58037 
   19700    19.629018      501    793.91519   -1904.3159    19.629018    19.629018    19.629018   -2336.0479   -3796.0411   -1924.3753   -1287.7271 
   19800    19.629018      501    793.74735   -1904.3969    19.629018    19.629018    19.629018   -2626.3866   -4093.6486    -2311.006   -1474.5051 
   19900    19.629018      501    782.21854   -1903.7412    19.629018    19.629018    19.629018   -2318.9119   -2874.2905   -2330.7671    -1751.678 
   20000    19.629018      501    774.30524   -1903.3131    19.629018    19.629018    19.629018   -1934.9467    -2451.141   -1978.5714   -1375.1276 
   20100    19.629018      501    762.07063   -1902.5965    19.629018    19.629018    19.629018   -1145.0583   -1078.2472   -1342.2914   -1014.6362 
   20200    19.629018      501     749.5234   -1901.8467    19.629018    19.629018    19.629018   -554.61466    -4.274063   -876.26022   -783.30971 
   20300    19.629018      501    741.69378   -1901.3861    19.629018    19.629018    19.629018   -367.36428    78.205045   -742.15609   -438.14178 
   20400    19.629018      501    735.66067   -1901.0242    19.629018    19.629018    19.629018   -90.129452    597.52238   -574.22178   -293.68895 
   20500    19.629018      501    730.66732   -1900.7101    19.629018    19.629018    19.629018    65.847427    458.25279    -505.8081    245.09759 
   20600    19.629018      501    730.10791    -1900.662    19.629018    19.629018    19.629018    65.037477    282.41863   -421.51358    334.20738 
   20700    19.629018      501    732.31128   -1900.7715    19.629018    19.629018    19.629018    -133.7248    114.67238    -908.2376    392.39082 
   20800    19.629018      501     741.6773   -1901.3236    19.629018    19.629018    19.629018   -499.25756   -174.87255   -1715.7309    392.83074 
   20900    19.629018      501    754.44693   -1902.0771    19.629018    19.629018    19.629018   -961.55225   -481.54383   -2366.4261   -36.686796 
   21000    19.629018      501    766.73179   -1902.7835    19.629018    19.629018    19.629018   -1732.9271   -915.70898   -3331.1977   -951.87458 
   21100    19.629018      501    773.40192   -1903.1154    19.629018    19.629018    19.629018   -1764.0205   -704.87458   -3538.1995   -1048.9873 
   21200    19.629018      501    773.31747   -1903.0015    19.629018    19.629018    19.629018   -1543.0023   -267.23216   -3243.9473   -1117.8275 
   21300    19.629018      501    768.17922   -1902.5526    19.629018    19.629018    19.629018   -1198.3959    160.71196   -2607.0768   -1148.8228 
   21400    19.629018      501    763.94017   -1902.1527    19.629018    19.629018    19.629018   -924.63666    455.40059   -2289.8106       -939.5 
   21500    19.629018      501    757.10659   -1901.5748    19.629018    19.629018    19.629018   -511.31697     895.4048   -1742.2786   -687.07711 
   21600    19.629018      501    760.79261   -1901.6644    19.629018    19.629018    19.629018   -886.16554    125.06144   -1612.8656   -1170.6924 
   21700    19.629018      501    773.38865   -1902.3165    19.629018    19.629018    19.629018   -1477.8487   -659.33548   -2190.6111   -1583.5996 
   21800    19.629018      501    791.17321   -1903.2929    19.629018    19.629018    19.629018   -2156.1103   -1393.6168   -2792.7131   -2282.0009 
   21900    19.629018      501    813.06349   -1904.5277    19.629018    19.629018    19.629018   -3036.6213   -2444.0526    -3395.734   -3270.0772 
   22000    19.629018      501    833.76593   -1905.6853    19.629018    19.629018    19.629018   -3727.7506   -3517.4313   -3793.2572   -3872.5633 
   22100    19.629018      501     843.5147   -1906.1427    19.629018    19.629018    19.629018   -4044.7695   -4035.4982   -3901.7588   -4197.0516 
   22200    19.629018      501    839.64061   -1905.7339    19.629018    19.629018    19.629018   -3882.1073   -4117.6205   -3604.2586   -3924.4429 
   22300    19.629018      501     827.4248   -1904.8005    19.629018    19.629018    19.629018   -3208.4535   -3624.3605   -2878.2975   -3122.7023 
   22400    19.629018      501    804.19676   -1903.1673    19.629018    19.629018    19.629018   -1873.5437   -2352.3787   -1768.6991   -1499.5532 
   22500    19.629018      501    783.01235   -1901.6715    19.629018    19.629018    19.629018   -725.00668   -1062.4492   -537.33978   -575.23102 
   22600    19.629018      501    760.50642    -1900.088    19.629018    19.629018    19.629018    630.85111    409.27364    602.94294    880.33674 
   22700    19.629018      501     748.0088   -1899.1429    19.629018    19.629018    19.629018    1574.8064     1773.076    1412.1173     1539.226 
   22800    19.629018      501    745.96722   -1898.8592    19.629018    19.629018    19.629018    1901.8052    2280.3936     1646.961     1778.061 
   22900    19.629018      501    754.27855   -1899.2281    19.629018    19.629018    19.629018     1591.852    2058.4304    1269.9716    1447.1541 
   23000    19.629018      501    771.41068   -1900.1504    19.629018    19.629018    19.629018    1142.8966    2010.5031    530.42357     887.7633 
   23100    19.629018      501    793.56647   -1901.3844    19.629018    19.629018    19.629018    588.87108    1585.4847   -336.26507    517.39362 
   23200    19.629018      501     809.0141   -1902.1781    19.629018    19.629018    19.629018    44.379506    1208.4241    -1209.081    133.79544 
   23300    19.629018      501    814.85747   -1902.3522    19.629018    19.629018    19.629018    113.25732    1472.0599   -1327.7802    195.49227 
   23400    19.629018      501    809.68892   -1901.8202    19.629018    19.629018    19.629018    261.79563    1474.3937   -1428.0952    739.08841 
   23500    19.629018      501    795.35365   -1900.7018    19.629018    19.629018    19.629018    1130.7161    2323.0744   -411.19365    1480.2675 
   23600    19.629018      501    780.45827   -1899.5498    19.629018    19.629018    19.629018    1691.5475    2666.3515    130.00992    2278.2809 
   23700    19.629018      501    769.75365   -1898.6669    19.629018    19.629018    19.629018    2350.3473    3016.1347    1202.5331    2832.3742 
   23800    19.629018      501    762.96122   -1898.0305    19.629018    19.629018    19.629018    2984.9821    3442.5267     2232.313    3280.1066 
   23900    19.629018      501    765.20575   -1897.9683    19.629018    19.629018    19.629018    2876.7968    3087.6215    2315.5737    3227.1951 
   24000    19.629018      501    774.93126   -1898.3787    19.629018    19.629018    19.629018    2641.7833     2797.854    2348.2067    2779.2893 
   24100    19.629018      501    790.21374   -1899.1382    19.629018    19.629018    19.629018    2156.3961    2285.6282    2177.8381    2005.7219 
   24200    19.629018      501    804.28458   -1899.8131    19.629018    19.629018    19.629018    1719.1556    1822.3476    1888.4879    1446.6315 
   24300    19.629018      501    810.51143    -1899.981    19.629018    19.629018    19.629018     1464.069     1867.581    1673.3103    851.31587 
   24400    19.629018      501    812.84106   -1899.9009    19.629018    19.629018    19.629018    1521.2928    1848.6893    1754.2073    960.98177 
   24500    19.629018      501    812.01509   -1899.6225    19.629018    19.629018    19.629018    2115.1641    2648.7801    2061.3099    1635.4023 
   24600    19.629018      501    813.17559   -1899.4783    19.629018    19.629018    19.629018    2353.4565     3086.873    2181.3387    1792.1577 
   24700    19.629018      501    817.63521   -1899.5522    19.629018    19.629018    19.629018     2512.376    3663.0727    1879.0688    1994.9866 
   24800    19.629018      501    825.94094   -1899.8801    19.629018    19.629018    19.629018    2513.7656    3890.0327    1646.5275    2004.7365 
   24900    19.629018      501    835.29654   -1900.2836    19.629018    19.629018    19.629018    2057.6788    3574.7244    1083.8311    1514.4807 
   25000    19.629018      501    841.15641   -1900.4719    19.629018    19.629018    19.629018    1898.3415    3708.4721    839.06754    1147.4848 
   25100    19.629018      501     840.8288   -1900.2742    19.629018    19.629018    19.629018     1898.975    4045.7556    821.86855    829.30076 
   25200    19.629018      501    834.05206   -1899.6746    19.629018    19.629018    19.629018    2386.6697    4745.7246    1360.8475    1053.4371 
   25300    19.629018      501    821.36817   -1898.7066    19.629018    19.629018    19.629018    3327.6359    5814.3991    2413.9967    1754.5117 
   25400    19.629018      501    805.21276   -1897.5241    19.629018    19.629018    19.629018     4367.655    6882.4463    3184.1341    3036.3847 
   25500    19.629018      501    789.57011   -1896.3792    19.629018    19.629018    19.629018     5257.654     8109.231    3764.8187    3898.9123 
   25600    19.629018      501    780.29971   -1895.6452    19.629018    19.629018    19.629018    5957.3756    8723.7133    4391.1109    4757.3026 
   25700    19.629018      501     781.6214   -1895.5909    19.629018    19.629018    19.629018     5924.403    8789.0084     3971.717    5012.4834 
   25800    19.629018      501    788.29327   -1895.8759    19.629018    19.629018    19.629018    5719.4749    8606.3197    3719.8408    4832.2641 
   25900    19.629018      501     796.6031   -1896.2616    19.629018    19.629018    19.629018    5456.6763    7879.1625    3858.8426    4632.0238 
   26000    19.629018      501    808.01479   -1896.8452    19.629018    19.629018    19.629018     4942.911    6849.8894    3529.2132    4449.6305 
   26100    19.629018      501    815.97134   -1897.2063    19.629018    19.629018    19.629018    4860.7394    5893.4319    3800.0605    4888.7259 
   26200    19.629018      501    818.78161   -1897.2393    19.629018    19.629018    19.629018    4809.8085    5161.2779    4148.1271    5120.0206 
   26300    19.629018      501    820.82185    -1897.228    19.629018    19.629018    19.629018    4710.9248    4156.4836    4432.6135    5543.6773 
   26400    19.629018      501    825.60225   -1897.4006    19.629018    19.629018    19.629018    4487.9498    3570.3773    4363.4373    5530.0347 
   26500    19.629018      501    834.89834   -1897.8726    19.629018    19.629018    19.629018    4160.9656    2772.6086    4411.9464    5298.3419 
   26600    19.629018      501    850.08677   -1898.7353    19.629018    19.629018    19.629018    3735.8313    1837.2123    3987.5969    5382.6849 
   26700    19.629018      501    865.29787   -1899.6145    19.629018    19.629018    19.629018    3028.7709    1246.5331    3178.1667    4661.6128 
   26800    19.629018      501    872.56664   -1900.0013    19.629018    19.629018    19.629018    2757.3256    920.23526    2734.0545     4617.687 
   26900    19.629018      501    873.78464   -1900.0223    19.629018    19.629018    19.629018    2558.2025    942.49825     2321.968    4410.1413 
   27000    19.629018      501    864.28569   -1899.3763    19.629018    19.629018    19.629018    2731.2774    1303.9662    2275.1921    4614.6738 
   27100    19.629018      501    848.49908   -1898.3465    19.629018    19.629018    19.629018    3299.9483    2324.0398    2432.1346    5143.6703 
   27200    19.629018      501    833.49726   -1897.3842    19.629018    19.629018    19.629018      3765.35    3257.9515    2528.4128    5509.6856 
   27300    19.629018      501    824.99488   -1896.8533    19.629018    19.629018    19.629018    4120.4541    3763.0075    2721.3719    5876.9827 
   27400    19.629018      501    821.31882   -1896.6428    19.629018    19.629018    19.629018    4540.6483    4619.6119    3232.5058    5769.8272 
   27500    19.629018      501    819.94056   -1896.5879    19.629018    19.629018    19.629018    4793.9056    5375.5295    3538.0178    5468.1694 
   27600    19.629018      501    821.08631    -1896.703    19.629018    19.629018    19.629018    4767.0895    5824.3305    3720.9991     4755.939 
   27700    19.629018      501    820.92867   -1896.7406    19.629018    19.629018    19.629018    4742.3724      6109.21    3921.6192    4196.2881 
   27800    19.629018      501     819.5056   -1896.7032    19.629018    19.629018    19.629018    4806.7373    6535.0831    4300.1694    3584.9594 
   27900    19.629018      501    821.77346   -1896.9112    19.629018    19.629018    19.629018    4555.9193    6279.2879     4522.393    2866.0769 
   28000    19.629018      501    824.51381   -1897.1575    19.629018    19.629018    19.629018    4312.4676    6205.4629    4298.7362    2433.2037 
   28100    19.629018      501    824.62217   -1897.2422    19.629018    19.629018    19.629018    4371.2671    6559.1629    4642.5322    1912.1063 
   28200    19.629018      501      832.668   -1897.8494    19.629018    19.629018    19.629018    3956.8415    5822.4584    4739.9482     1308.118 
   28300    19.629018      501    839.03664     -1898.36    19.629018    19.629018    19.629018    3472.2296    5706.6054    4069.6128    640.47055 
   28400    19.629018      501    836.75943   -1898.3253    19.629018    19.629018    19.629018    3704.9783    6277.5189    4131.4527    705.96315 
   28500    19.629018      501    834.42009   -1898.2997    19.629018    19.629018    19.629018    3949.2108     5821.988    4223.1204    1802.5239 
   28600    19.629018      501    830.70751   -1898.1971    19.629018    19.629018    19.629018     4336.082    6189.1499    4356.5446    2462.5515 
   28700    19.629018      501    819.88359   -1897.6432    19.629018    19.629018    19.629018     4934.022     6568.011    4524.8674    3709.1877 
   28800    19.629018      501    815.46998   -1897.5097    19.629018    19.629018    19.629018    4999.3277    6629.1788    4275.4233    4093.3812 
   28900    19.629018      501     811.5454   -1897.4118    19.629018    19.629018    19.629018    5295.7695    6419.7795    4730.1735    4737.3557 
   29000    19.629018      501    813.02206   -1897.6667    19.629018    19.629018    19.629018    5128.3699    5959.4603    4594.2888    4831.3607 
   29100    19.629018      501    812.39912     -1897.79    19.629018    19.629018    19.629018    4768.9272    5327.3345    4407.3853    4572.0619 
   29200    19.629018      501    809.27923   -1897.7546    19.629018    19.629018    19.629018    4486.1812    4943.0194    4331.0989    4184.4252 
   29300    19.629018      501    811.72605   -1898.0819    19.629018    19.629018    19.629018    3674.0343    3386.7846    3785.2281    3850.0903 
   29400    19.629018      501    814.21178    -1898.416    19.629018    19.629018    19.629018    3272.1037     2580.822     3716.258    3519.2311 
   29500    19.629018      501    815.19053   -1898.6569    19.629018    19.629018    19.629018    2952.6055    1844.4177    3472.6017    3540.7973 
   29600    19.629018      501    817.23344   -1898.9715    19.629018    19.629018    19.629018     2606.605    1349.3188    2922.2054    3548.2907 
   29700    19.629018      501     813.1385   -1898.8945    19.629018    19.629018    19.629018    2354.8005    1043.9375    2409.3763    3611.0876 
   29800    19.629018      501    812.50213   -1899.0441    19.629018    19.629018    19.629018    2252.9495    1220.0312    2245.8983    3292.9188 
   29900    19.629018      501    808.62573   -1898.9867    19.629018    19.629018    19.629018    2126.8156    1317.6696    1882.9625    3179.8148 
   30000    19.629018      501    812.69046    -1899.445    19.629018    19.629018    19.629018     1629.821    877.94019    1510.8788    2500.6441 
   30100    19.629018      501    813.62777    -1899.705    19.629018    19.629018    19.629018    1373.4946     914.1954    1062.7208    2143.5675 
   30200    19.629018      501    812.41821   -1899.8296    19.629018    19.629018    19.629018    1442.5879    1273.1839    753.51621    2301.0638 
   30300    19.629018      501    812.07874   -1900.0132    19.629018    19.629018    19.629018    1274.5039    1550.4012    244.76803    2028.3426 
   30400    19.629018      501    811.45235    -1900.181    19.629018    19.629018    19.629018    1105.8567    1338.5311    164.57534    1814.4636 
   30500    19.629018      501     813.5986   -1900.5309    19.629018    19.629018    19.629018    540.71471     952.6038   -608.35102    1277.8913 
   30600    19.629018      501    818.07234   -1901.0351    19.629018    19.629018    19.629018   -47.945684    348.58712   -1092.1128     599.6886 
   30700    19.629018      501      824.685   -1901.6836    19.629018    19.629018    19.629018   -433.69816   -177.79673    -1220.569    97.271227 
   30800    19.629018      501     830.2608   -1902.2738    19.629018    19.629018    19.629018    -782.2975   -544.22824   -1313.3804   -489.28387 
   30900    19.629018      501    828.45814   -1902.3958    19.629018    19.629018    19.629018   -705.66981   -382.51422   -764.35601   -970.13919 
   31000    19.629018      501    817.23522   -1901.9143    19.629018    19.629018    19.629018   -487.03676    121.87165   -263.56912   -1319.4128 
   31100    19.629018      501    798.98316   -1900.9772    19.629018    19.629018    19.629018    257.11906    1229.4209    702.67367   -1160.7373 
   31200    19.629018      501    780.18443   -1899.9966    19.629018    19.629018    19.629018    1048.1542     2142.112    1559.9714   -557.62084 
   31300    19.629018      501     765.1372   -1899.2449    19.629018    19.629018    19.629018    1680.2916    2992.4483     2092.471   -44.044475 
   31400    19.629018      501    758.90764   -1899.0475    19.629018    19.629018    19.629018    2032.2337    3360.1864    2098.8283    637.68626 
   31500    19.629018      501    759.54604   -1899.2791    19.629018    19.629018    19.629018    2130.7166     3112.242    1986.0196    1293.8882 
   31600    19.629018      501    762.81774   -1899.6676    19.629018    19.629018    19.629018    2237.6851    3014.9001    2036.2875    1661.8678 
   31700    19.629018      501    762.66791   -1899.8228    19.629018    19.629018    19.629018    2079.4797    2697.6266    1835.5398    1705.2726 
   31800    19.629018      501    759.20497   -1899.7511    19.629018    19.629018    19.629018     2107.058    2781.0553    1742.4214    1797.6972 
   31900    19.629018      501    752.14489   -1899.4326    19.629018    19.629018    19.629018    2041.6479    2648.5872    1709.0632    1767.2934 
   32000    19.629018      501    747.84702   -1899.2767    19.629018    19.629018    19.629018    2213.8715    2805.4774    1864.6748    1971.4624 
   32100    19.629018      501    750.04308   -1899.5245    19.629018    19.629018    19.629018    1946.1151    2283.5157    1943.9428     1610.887 
   32200    19.629018      501    760.52833   -1900.2939    19.629018    19.629018    19.629018     1302.433     1584.639    1501.3137    821.34631 
   32300    19.629018      501    778.13024   -1901.5129    19.629018    19.629018    19.629018    230.41581    445.84405    701.12588   -455.72251 
   32400    19.629018      501    797.18412   -1902.8211    19.629018    19.629018    19.629018   -1113.1213   -938.67727   -469.36705   -1931.3195 
   32500    19.629018      501    811.25352   -1903.8079    19.629018    19.629018    19.629018   -2177.9622   -2113.4724    -1462.653   -2957.7612 
   32600    19.629018      501    818.25833   -1904.3428    19.629018    19.629018    19.629018   -2910.8301   -2794.4325   -2130.9591   -3807.0985 
   32700    19.629018      501    818.18553   -1904.4267    19.629018    19.629018    19.629018   -2888.6786   -2695.6667   -2120.4759   -3849.8932 
   32800    19.629018      501    812.32912   -1904.1426    19.629018    19.629018    19.629018   -2694.8935   -2609.5078   -2005.3121   -3469.8605 
   32900    19.629018      501    804.45096   -1903.7313    19.629018    19.629018    19.629018   -2410.1598    -2208.458   -1998.5308   -3023.4905 
   33000    19.629018      501     794.0681   -1903.1586    19.629018    19.629018    19.629018   -2041.7229   -1924.2523    -1936.717   -2264.1995 
   33100    19.629018      501    782.72258   -1902.5206    19.629018    19.629018    19.629018   -1684.5732   -1632.2887    -1796.641     -1624.79 
   33200    19.629018      501    772.95035   -1901.9779    19.629018    19.629018    19.629018   -1055.4317   -1086.8811   -1310.0778   -769.33597 
   33300    19.629018      501    767.13313   -1901.6819    19.629018    19.629018    19.629018   -766.67685   -833.37883    -1171.378   -295.27373 
   33400    19.629018      501    763.48345   -1901.5155    19.629018    19.629018    19.629018    -382.6426   -319.35024   -958.06039    129.48284 
   33500    19.629018      501    763.90579   -1901.6013    19.629018    19.629018    19.629018   -304.87606   -345.11928   -832.25069    262.74178 
   33600    19.629018      501    767.11644   -1901.8565    19.629018    19.629018    19.629018   -547.32213   -369.19114   -1075.4668   -197.30846 
   33700    19.629018      501     773.2942   -1902.2939    19.629018    19.629018    19.629018   -794.53055   -209.70768   -1255.3807   -918.50323 
   33800    19.629018      501    778.67483   -1902.6718    19.629018    19.629018    19.629018   -787.33058    228.22557   -1480.1018   -1110.1156 
   33900    19.629018      501    780.24564    -1902.797    19.629018    19.629018    19.629018   -999.23331    511.52418   -1762.3244   -1746.8997 
   34000    19.629018      501    774.58999   -1902.4488    19.629018    19.629018    19.629018   -625.86812    963.45807   -1276.4332   -1564.6292 
   34100    19.629018      501    763.75141   -1901.7575    19.629018    19.629018    19.629018    92.275413     1846.886   -771.54269   -798.51703 
   34200    19.629018      501    748.72986   -1900.7846    19.629018    19.629018    19.629018    719.25203    2738.4065   -119.79264   -460.85775 
   34300    19.629018      501    735.73046    -1899.927    19.629018    19.629018    19.629018    908.32255    2832.7494    286.36568   -394.14739 
   34400    19.629018      501    730.96819    -1899.583    19.629018    19.629018    19.629018    887.29817    2427.0295    712.11303   -477.24801 
   34500    19.629018      501    737.75795   -1899.9651    19.629018    19.629018    19.629018    439.94947    1629.7106    528.60452   -838.46667 
   34600    19.629018      501    755.88055   -1901.0599    19.629018    19.629018    19.629018   -392.93503    530.14979    -184.9679    -1523.987 
   34700    19.629018      501    781.49015   -1902.6224    19.629018    19.629018    19.629018   -1503.4322   -744.79094    -1292.736   -2472.7696 
   34800    19.629018      501    807.90186   -1904.2272    19.629018    19.629018    19.629018   -2537.4292   -1990.9424   -2368.9516   -3252.3935 
   34900    19.629018      501    828.20761   -1905.4364    19.629018    19.629018    19.629018   -3365.5364   -3188.7519   -3156.4576   -3751.3995 
   35000    19.629018      501    837.45378   -1905.9378    19.629018    19.629018    19.629018   -3804.0491   -3807.7171   -3757.8725   -3846.5578 
   35100    19.629018      501    833.78162    -1905.616    19.629018    19.629018    19.629018   -3487.4965   -3572.4575   -3489.0102   -3401.0217 
   35200    19.629018      501    819.15082   -1904.5976    19.629018    19.629018    19.629018   -2685.8611    -2765.407   -2652.7452    -2639.431 
   35300    19.629018      501    798.89927   -1903.2234    19.629018    19.629018    19.629018   -1596.9302   -1604.5574    -1573.667   -1612.5663 
   35400    19.629018      501     777.9216   -1901.8033    19.629018    19.629018    19.629018   -427.82055   -542.96135   -331.13697   -409.36334 
   35500    19.629018      501     760.9534   -1900.6369    19.629018    19.629018    19.629018    550.33291    643.30834    392.42528    615.26513 
   35600    19.629018      501    750.60066   -1899.8872    19.629018    19.629018    19.629018    1291.0632    1516.6096    1020.5249    1336.0552 
   35700    19.629018      501    748.59278   -1899.6625    19.629018    19.629018    19.629018    1758.6676    1999.0768    1370.1481    1906.7781 
   35800    19.629018      501    754.13737   -1899.9099    19.629018    19.629018    19.629018    1651.6093    2057.8382    1058.9268    1838.0629 
   35900    19.629018      501    763.21194     -1900.37    19.629018    19.629018    19.629018    1578.5853    2219.8177    733.71587    1782.2225 
   36000    19.629018      501    769.13456   -1900.6133    19.629018    19.629018    19.629018    1725.6471    2471.6492     815.6275    1889.6645 
   36100    19.629018      501     767.3822   -1900.3502    19.629018    19.629018    19.629018    1835.3503    2800.4128    1156.3749    1549.2631 
   36200    19.629018      501    759.16697   -1899.6603    19.629018    19.629018    19.629018    2050.3996    3004.0457    1683.8659    1463.2874 
   36300    19.629018      501    750.70595   -1898.9441    19.629018    19.629018    19.629018    2286.9674    3333.4952    2201.1847    1326.2221 
   36400    19.629018      501    747.94129   -1898.5831    19.629018    19.629018    19.629018    2483.2027    3493.1102    2725.9933    1230.5045 
   36500    19.629018      501    753.05621   -1898.7163    19.629018    19.629018    19.629018    2629.6699    3691.3022    3034.9434    1162.7641 
   36600    19.629018      501    765.94274   -1899.3364    19.629018    19.629018    19.629018    2139.5246    3493.1351    2440.9087    484.52998 
   36700    19.629018      501    780.41443   -1900.0461    19.629018    19.629018    19.629018    1606.7494    3326.7212    1575.2346   -81.707622 
   36800    19.629018      501    790.99462   -1900.4964    19.629018    19.629018    19.629018    1323.0423    3407.5519    1139.3614   -577.78635 
   36900    19.629018      501    798.32209   -1900.7337    19.629018    19.629018    19.629018    925.82702    3066.1244     556.4051   -845.04847 
   37000    19.629018      501    805.21535   -1900.9431    19.629018    19.629018    19.629018    702.94689    2825.8947    72.241209   -789.29526 
   37100    19.629018      501    812.99368   -1901.2123    19.629018    19.629018    19.629018    414.96728    2093.5528   -185.48376   -663.16724 
   37200    19.629018      501    822.78161   -1901.6162    19.629018    19.629018    19.629018   -16.720311    1038.5436   -437.21889   -651.48568 
   37300    19.629018      501    831.91056   -1901.9854    19.629018    19.629018    19.629018    -164.4218     195.8629   -357.15306   -331.97524 
   37400    19.629018      501     835.7163   -1902.0218    19.629018    19.629018    19.629018   -225.59892   -478.57181   -57.809457    -140.4155 
   37500    19.629018      501    832.25503   -1901.6025    19.629018    19.629018    19.629018   -61.243574   -847.82722    369.27683    294.81967 
   37600    19.629018      501    826.00836   -1901.0171    19.629018    19.629018    19.629018    173.82362   -802.06142    847.66536    475.86694 
   37700    19.629018      501    818.93548   -1900.3898    19.629018    19.629018    19.629018    483.83971   -532.44504     1301.746    682.21819 
   37800    19.629018      501    813.63169   -1899.8856    19.629018    19.629018    19.629018    984.75637    34.647602    1784.8181    1134.8034 
   37900    19.629018      501    810.37466     -1899.52    19.629018    19.629018    19.629018    1356.2788     487.4392     2020.935    1560.4623 
   38000    19.629018      501    807.47676   -1899.1823    19.629018    19.629018    19.629018    1718.1884    1135.5122    2007.6555    2011.3975 
   38100    19.629018      501    805.23634   -1898.8906    19.629018    19.629018    19.629018    2232.1501     1943.568    1991.8012    2761.0813 
   38200    19.629018      501    802.99778   -1898.6015    19.629018    19.629018    19.629018     2421.605    2527.4101    1762.0002    2975.4047 
   38300    19.629018      501    801.44719   -1898.3586    19.629018    19.629018    19.629018    2915.4667    3253.9031    1773.4984    3718.9986 
   38400    19.629018      501    804.12386   -1898.3898    19.629018    19.629018    19.629018    2773.4505    3202.2414    1391.6743    3726.4359 
   38500    19.629018      501    807.54016   -1898.4697    19.629018    19.629018    19.629018     2934.139    3371.9567    1399.9769    4030.4832 
   38600    19.629018      501    810.44062   -1898.5184    19.629018    19.629018    19.629018    3022.4431    3524.3781    1164.0564    4378.8949 
   38700    19.629018      501    811.08627   -1898.4246    19.629018    19.629018    19.629018    3176.8901    3874.8481    1092.4685    4563.3537 
   38800    19.629018      501    807.12263   -1898.0367    19.629018    19.629018    19.629018    3483.2446    4101.1416    1352.1719    4996.4204 
   38900    19.629018      501    799.44356   -1897.4119    19.629018    19.629018    19.629018     4066.258    4501.5892    2113.8635    5583.3213 
   39000    19.629018      501    791.98379   -1896.8025    19.629018    19.629018    19.629018    4632.3926     4809.421    3194.1203    5893.6365 
   39100    19.629018      501    789.97645   -1896.5438    19.629018    19.629018    19.629018    4723.5016    4599.5302    3711.3669    5859.6075 
   39200    19.629018      501    796.30125   -1896.8202    19.629018    19.629018    19.629018    4459.3713    4174.3003    3928.8382    5274.9754 
   39300    19.629018      501    811.33216   -1897.6567    19.629018    19.629018    19.629018    3723.2114     3376.604    3322.1431    4470.8869 
   39400    19.629018      501    830.21326   -1898.7429    19.629018    19.629018    19.629018    2920.3575     2785.358     2622.933    3352.7815 
   39500    19.629018      501    847.64147   -1899.7423    19.629018    19.629018    19.629018    2169.5084    2368.9703    1693.2463    2446.3085 
   39600    19.629018      501    858.56009   -1900.3351    19.629018    19.629018    19.629018    1866.6592    2446.5475     1144.227    2009.2029 
   39700    19.629018      501    859.63389   -1900.3105    19.629018    19.629018    19.629018    1806.5843    2870.9772    744.55304    1804.2226 
   39800    19.629018      501    852.69492   -1899.7887    19.629018    19.629018    19.629018     2138.992    3196.7959    976.18846    2243.9915 
   39900    19.629018      501    841.54606   -1899.0134    19.629018    19.629018    19.629018    2764.1555     3938.993    1470.1888    2883.2846 
   40000    19.629018      501    831.32122   -1898.3124    19.629018    19.629018    19.629018    3165.2499    4138.2059    2014.9927    3342.5512 
   40100    19.629018      501    826.35027   -1897.9618    19.629018    19.629018    19.629018    3222.9127    4111.4763    2201.3168     3355.945 
   40200    19.629018      501    827.69314   -1898.0281    19.629018    19.629018    19.629018    3338.9538     4159.175    2518.7175    3338.9689 
   40300    19.629018      501    832.90991    -1898.354    19.629018    19.629018    19.629018    3225.1353    4039.5845    2641.5625     2994.259 
   40400    19.629018      501    837.15023   -1898.6277    19.629018    19.629018    19.629018    3060.0058    3872.7972    2520.5865    2786.6338 
   40500    19.629018      501    837.14072   -1898.6394    19.629018    19.629018    19.629018    3057.3088    4116.9694    2485.3456    2569.6115 
   40600    19.629018      501    834.48749   -1898.4926    19.629018    19.629018    19.629018    3268.4403    4446.2159    2821.5391    2537.5658 
   40700    19.629018      501    834.35068   -1898.5204    19.629018    19.629018    19.629018    3547.2077    4894.1101    3228.9502    2518.5629 
   40800    19.629018      501    841.11961   -1899.0069    19.629018    19.629018    19.629018    2874.8731    4149.7011    2917.6435    1557.2748 
   40900    19.629018      501    851.93119   -1899.7698    19.629018    19.629018    19.629018    2365.4227    3345.4186    2815.9954    934.85407 
   41000    19.629018      501    861.96503   -1900.5018    19.629018    19.629018    19.629018    1848.0365    2805.0859    2400.6158    338.40801 
   41100    19.629018      501    866.33748   -1900.8908    19.629018    19.629018    19.629018    1633.0077     2115.542    2323.6255     459.8555 
   41200    19.629018      501    857.91257    -1900.476    19.629018    19.629018    19.629018    1860.4566    1923.7367     2596.868    1060.7652 
   41300    19.629018      501    839.51677   -1899.4349    19.629018    19.629018    19.629018    2561.2926    2209.2292    3231.6358    2243.0127 
   41400    19.629018      501    821.38225   -1898.4214    19.629018    19.629018    19.629018    3411.2912    2565.8452    4064.5379    3603.4906 
   41500    19.629018      501    804.13453   -1897.4692    19.629018    19.629018    19.629018    4033.3494     3178.481     4497.589    4423.9782 
   41600    19.629018      501    788.71392   -1896.6333    19.629018    19.629018    19.629018    4849.7233    4112.7618    5129.4646    5306.9434 
   41700    19.629018      501    775.93568   -1895.9618    19.629018    19.629018    19.629018    5232.9615    4793.4251    5100.6715    5804.7878 
   41800    19.629018      501    767.79866   -1895.5806    19.629018    19.629018    19.629018    5466.1174    5605.7801    4948.8048    5843.7674 
   41900    19.629018      501    764.75059   -1895.5173    19.629018    19.629018    19.629018    5530.4533     6191.936    4746.5097    5652.9141 
   42000    19.629018      501    769.25807   -1895.9314    19.629018    19.629018    19.629018    5639.8684     6691.751    4425.7822    5802.0721 
   42100    19.629018      501    781.46737   -1896.8352    19.629018    19.629018    19.629018    5046.2999    6404.0832    3500.7267    5234.0898 
   42200    19.629018      501    799.00451   -1898.0797    19.629018    19.629018    19.629018    4050.2417    5475.1314    2487.5749    4188.0187 
   42300    19.629018      501    818.33798   -1899.4429    19.629018    19.629018    19.629018    3440.8395     4580.065    2219.2583    3523.1952 
   42400    19.629018      501     833.1549   -1900.5226    19.629018    19.629018    19.629018     2715.495    3266.3186    2173.3928    2706.7735 
   42500    19.629018      501    838.82379   -1901.0237    19.629018    19.629018    19.629018    2435.1615    2188.5403    2455.2544    2661.6899 
   42600    19.629018      501    835.68873    -1900.969    19.629018    19.629018    19.629018    2606.7079    1520.9903    3228.7281    3070.4054 
   42700    19.629018      501    827.01764   -1900.5674    19.629018    19.629018    19.629018    2974.8254    1214.4966    4258.3779    3451.6017 
   42800    19.629018      501    815.53966   -1899.9912    19.629018    19.629018    19.629018    3057.8356    912.68712    4518.4029    3742.4167 
   42900    19.629018      501    807.92261   -1899.6675    19.629018    19.629018    19.629018    3243.1515    997.74811    4712.0187    4019.6876 
   43000    19.629018      501    806.67796   -1899.7572    19.629018    19.629018    19.629018    2953.1859    873.73823    4292.2667    3693.5527 
   43100    19.629018      501    806.84837   -1899.9401    19.629018    19.629018    19.629018    2663.9449    1015.6655    3632.6912     3343.478 
   43200    19.629018      501    804.67646   -1899.9728    19.629018    19.629018    19.629018    2577.8384    1496.2447    3157.9457    3079.3248 
   43300    19.629018      501    796.72712   -1899.6318    19.629018    19.629018    19.629018    2802.4924    2298.8527    3049.3192    3059.3051 
   43400    19.629018      501    780.93906   -1898.7793    19.629018    19.629018    19.629018    3190.1322    2873.8636    3246.7445    3449.7885 
   43500    19.629018      501    763.20549   -1897.7906    19.629018    19.629018    19.629018    3759.5181    3431.3695    3765.9438     4081.241 
   43600    19.629018      501     747.5607   -1896.9214    19.629018    19.629018    19.629018    4149.6998     3719.042    4265.9451    4464.1122 
   43700    19.629018      501    739.42989   -1896.5194    19.629018    19.629018    19.629018    4567.2003     3992.148    4856.6159     4852.837 
   43800    19.629018      501    740.59713   -1896.6992    19.629018    19.629018    19.629018    4514.3219    3870.1819    4837.1294    4835.6544 
   43900    19.629018      501    748.44207   -1897.2934    19.629018    19.629018    19.629018    3913.7498    3239.1376     4208.593    4293.5188 
   44000    19.629018      501    759.56615   -1898.0849    19.629018    19.629018    19.629018    3212.1632    2586.6845    3515.1989    3534.6061 
   44100    19.629018      501    774.67955   -1899.1232    19.629018    19.629018    19.629018    2309.7999    1685.4928    2810.4132    2433.4936 
   44200    19.629018      501    791.51552   -1900.2663    19.629018    19.629018    19.629018    1286.8757    673.43819    1927.3419    1259.8471 
   44300    19.629018      501    806.47995    -1901.287    19.629018    19.629018    19.629018    394.47113   -229.08747    1181.0691    231.43174 
   44400    19.629018      501    820.63631   -1902.2588    19.629018    19.629018    19.629018   -568.09876   -899.81385    176.22911   -980.71154 
   44500    19.629018      501    828.46098   -1902.8292    19.629018    19.629018    19.629018   -1504.5437   -1523.1398   -824.06026    -2166.431 
   44600    19.629018      501    828.99353   -1902.9385    19.629018    19.629018    19.629018   -1890.5248   -1968.9142    -1242.342   -2460.3182 
   44700    19.629018      501    818.59798   -1902.3509    19.629018    19.629018    19.629018   -1822.4284   -1896.6111   -1147.1849    -2423.489 
   44800    19.629018      501    805.27207   -1901.5793    19.629018    19.629018    19.629018   -1333.3103   -1412.3658   -610.29192   -1977.2732 
   44900    19.629018      501     799.5586   -1901.3012    19.629018    19.629018    19.629018    -1003.879   -1089.4525   -349.38755   -1572.7969 
   45000    19.629018      501    800.94627   -1901.4826    19.629018    19.629018    19.629018    -857.9193   -1126.6593   -61.820679   -1385.2779 
   45100    19.629018      501     814.2861   -1902.4391    19.629018    19.629018    19.629018   -1232.3656   -1701.5176   -535.68877   -1459.8904 
   45200    19.629018      501    829.16337   -1903.5027    19.629018    19.629018    19.629018   -1917.7267   -2523.6314   -1526.1049   -1703.4439 
   45300    19.629018      501    843.41471   -1904.5384    19.629018    19.629018    19.629018    -2561.673   -3157.7778   -2240.4156   -2286.8254 
   45400    19.629018      501    844.14666   -1904.7166    19.629018    19.629018    19.629018   -2640.3415   -2865.5187   -2759.6528   -2295.8532 
   45500    19.629018      501     833.9614   -1904.2039    19.629018    19.629018    19.629018   -2338.9539   -2373.2319   -2903.0698   -1740.5599 
   45600    19.629018      501    812.90158   -1902.9974    19.629018    19.629018    19.629018   -1287.7901   -914.05916   -2261.8551   -687.45593 
   45700    19.629018      501    786.03822    -1901.416    19.629018    19.629018    19.629018   -224.43447    9.3267787   -1247.2481    564.61793 
   45800    19.629018      501    754.61129   -1899.5298    19.629018    19.629018    19.629018    1312.4112    1587.9078    201.03669    2148.2891 
   45900    19.629018      501    732.11172   -1898.2021    19.629018    19.629018    19.629018    2475.3972    2257.3148    1604.4184    3564.4584 
   46000    19.629018      501     722.2556   -1897.6694    19.629018    19.629018    19.629018    3039.4222    2455.2563    2592.2775    4070.7328 
   46100    19.629018      501    726.08455   -1897.9989    19.629018    19.629018    19.629018    2900.7624    1915.3363    2505.9162    4281.0346 
   46200    19.629018      501    745.23039   -1899.2983    19.629018    19.629018    19.629018    2086.9837    566.25541    2041.5844    3653.1113 
   46300    19.629018      501    767.52704   -1900.7866    19.629018    19.629018    19.629018    974.89872   -847.13601    1200.2977    2571.5344 
   46400    19.629018      501    788.33042   -1902.1697    19.629018    19.629018    19.629018   -15.520388    -1889.359    327.89718    1514.9006 
   46500    19.629018      501    807.30913   -1903.4324    19.629018    19.629018    19.629018   -853.92047   -2874.6796   -194.22186       507.14 
   46600    19.629018      501    809.35426   -1903.6033    19.629018    19.629018    19.629018   -993.72136   -2786.0629   -301.95345    106.85231 
   46700    19.629018      501    804.17465   -1903.3107    19.629018    19.629018    19.629018   -1037.2442   -3048.3014   -203.56157    140.13026 
   46800    19.629018      501    788.01064   -1902.3093    19.629018    19.629018    19.629018   -455.87303   -2186.5351    566.62173    252.29429 
   46900    19.629018      501      775.293   -1901.5269    19.629018    19.629018    19.629018    19.588171   -1954.9381    1113.2861     900.4165 
   47000    19.629018      501    765.06502   -1900.8975    19.629018    19.629018    19.629018    265.73045   -1783.9632    1565.9772    1015.1774 
   47100    19.629018      501    764.42986   -1900.8777    19.629018    19.629018    19.629018    174.79928      -1860.4    1544.2959    840.50197 
   47200    19.629018      501    774.40301   -1901.5331    19.629018    19.629018    19.629018   -270.34765   -2302.7992    1025.9475    465.80874 
   47300    19.629018      501    787.39812   -1902.3759    19.629018    19.629018    19.629018   -876.17931   -2958.5527    538.06818   -208.05338 
   47400    19.629018      501     797.5639   -1903.0318    19.629018    19.629018    19.629018   -1589.0612   -3614.7613   -56.665019   -1095.7572 
   47500    19.629018      501    800.53068   -1903.2214    19.629018    19.629018    19.629018   -1986.4894   -4003.7679   -438.15208   -1517.5481 
   47600    19.629018      501    796.46829   -1902.9566    19.629018    19.629018    19.629018   -1887.9773   -3786.8329   -555.91931   -1321.1798 
   47700    19.629018      501    789.26856   -1902.4877    19.629018    19.629018    19.629018   -1606.9393   -3170.3951   -264.46336   -1385.9593 
   47800    19.629018      501    782.47181   -1902.0413    19.629018    19.629018    19.629018   -1147.6413   -2318.4108   -120.61402   -1003.8992 
   47900    19.629018      501    778.33291   -1901.7612    19.629018    19.629018    19.629018   -833.54294   -1493.4458   -284.86848   -722.31458 
   48000    19.629018      501    774.11141   -1901.4687    19.629018    19.629018    19.629018    -541.4644   -800.34392   -546.56079   -277.48849 
   48100    19.629018      501     772.3565   -1901.3271    19.629018    19.629018    19.629018   -623.63872   -409.24306   -867.99586   -593.67724 
   48200    19.629018      501    773.18692   -1901.3436    19.629018    19.629018    19.629018   -558.89836   -149.90923   -751.81366   -774.97219 
   48300    19.629018      501    778.18435   -1901.6201    19.629018    19.629018    19.629018   -828.34661   -370.54643   -904.97323   -1209.5202 
   48400    19.629018      501    786.61172   -1902.1101    19.629018    19.629018    19.629018   -930.55395   -225.79035   -802.48496   -1763.3865 
   48500    19.629018      501    789.09072   -1902.2095    19.629018    19.629018    19.629018    -843.2195   -133.69608   -553.86578   -1842.0967 
   48600    19.629018      501    784.49206   -1901.8467    19.629018    19.629018    19.629018   -438.13156    176.38561   -285.50592   -1205.2744 
   48700    19.629018      501    773.56494    -1901.069    19.629018    19.629018    19.629018    235.30474    746.77398    75.850474   -116.71024 
   48800    19.629018      501     765.7246   -1900.4821    19.629018    19.629018    19.629018    429.35637    1095.7242    33.445218    158.89973 
   48900    19.629018      501    763.33601   -1900.2359    19.629018    19.629018    19.629018    644.93484    1217.9289    103.26876    613.60689 
   49000    19.629018      501     767.3978   -1900.3933    19.629018    19.629018    19.629018    652.28724    1105.2071   -338.78386    1190.4385 
   49100    19.629018      501    780.54681    -1901.125    19.629018    19.629018    19.629018    195.63789    796.31643   -858.48688    649.08412 
   49200    19.629018      501    792.28606   -1901.7551    19.629018    19.629018    19.629018   -134.75678   -73.921477   -994.00005    663.65118 
   49300    19.629018      501    799.61108   -1902.0937    19.629018    19.629018    19.629018   -49.470963   -312.35535   -757.02561    920.96808 
   49400    19.629018      501    797.07037   -1901.7916    19.629018    19.629018    19.629018    212.09151   -677.58011   -246.18744    1560.0421 
   49500    19.629018      501     791.8824   -1901.3164    19.629018    19.629018    19.629018     590.0333   -756.15806    640.69465    1885.5633 
   49600    19.629018      501    782.10356   -1900.5409    19.629018    19.629018    19.629018    1371.1038    -313.1447    1782.0805    2644.3758 
   49700    19.629018      501    781.09635   -1900.3266    19.629018    19.629018    19.629018    1551.1689   -105.19158    2227.8782    2530.8199 
   49800    19.629018      501     782.5533    -1900.264    19.629018    19.629018    19.629018    1616.0577   -189.01161    2347.7097    2689.4751 
   49900    19.629018      501    790.80526   -1900.6331    19.629018    19.629018    19.629018    1491.9035   -92.224887    2475.4903     2092.445 
   50000    19.629018      501    800.64731   -1901.0989    19.629018    19.629018    19.629018    1086.7562    26.629365     1851.925    1381.7142 
   50100    19.629018      501    809.86123   -1901.5214    19.629018    19.629018    19.629018    1089.9224    585.67222    1694.6329    989.46203 
   50200    19.629018      501    814.93716   -1901.6773    19.629018    19.629018    19.629018    1029.8605    1120.4941    1276.6518    692.43562 
   50300    19.629018      501    811.80321   -1901.3067    19.629018    19.629018    19.629018    977.78373    1580.8288    843.91869     508.6037 
   50400    19.629018      501    804.81041   -1900.6919    19.629018    19.629018    19.629018    1018.8267    1948.0094     658.8316    449.63911 
   50500    19.629018      501    794.48667    -1899.865    19.629018    19.629018    19.629018    1226.4015    2515.8324    445.59533    717.77669 
   50600    19.629018      501    794.21418    -1899.688    19.629018    19.629018    19.629018    1231.2092    2140.3926    356.04616    1197.1887 
   50700    19.629018      501    796.49153   -1899.6744    19.629018    19.629018    19.629018    1151.8856    1829.8422    80.553905    1545.2607 
   50800    19.629018      501    801.36315   -1899.8274    19.629018    19.629018    19.629018    924.47212     1627.474   -507.43689    1653.3793 
   50900    19.629018      501    809.85707   -1900.2143    19.629018    19.629018    19.629018    794.05442    861.39423   -327.00003    1847.7691 
   51000    19.629018      501    820.59365   -1900.7489    19.629018    19.629018    19.629018    614.80311    697.22769   -616.38253    1763.5641 
   51100    19.629018      501     823.7083   -1900.7971    19.629018    19.629018    19.629018    849.58065    909.26567    17.365649    1622.1106 
   51200    19.629018      501    815.48257   -1900.1215    19.629018    19.629018    19.629018    1516.1845    1721.8325    1185.1072    1641.6137 
   51300    19.629018      501    803.87655   -1899.2353    19.629018    19.629018    19.629018     2399.444     2898.767    2282.3949    2017.1701 
   51400    19.629018      501    783.84537   -1897.8092    19.629018    19.629018    19.629018    3468.5354    4410.3605    3564.6445    2430.6011 
   51500    19.629018      501     763.9285   -1896.3898    19.629018    19.629018    19.629018    4524.1575    5467.1319    4895.9086    3209.4321 
   51600    19.629018      501     756.0015   -1895.7382    19.629018    19.629018    19.629018    4980.1766     5815.203    5142.4144    3982.9124 
   51700    19.629018      501    762.65208   -1896.0168    19.629018    19.629018    19.629018    4795.5355    5511.1637    4761.8354    4113.6075 
   51800    19.629018      501    780.15587   -1896.9843    19.629018    19.629018    19.629018    4283.0857    4699.4742    4163.8868    3985.8962 
   51900    19.629018      501    802.43228   -1898.2513    19.629018    19.629018    19.629018    3266.2193    3233.9097    3189.5143    3375.2338 
   52000    19.629018      501    827.85397   -1899.7194    19.629018    19.629018    19.629018    2135.5842    1992.7963    2177.2847    2236.6715 
[...]
   87400    19.629018      501    850.61433   -1902.6109    19.629018    19.629018    19.629018   -488.90785   -614.27181    94.247514   -946.69925 
   87500    19.629018      501     852.7535   -1902.5584    19.629018    19.629018    19.629018   -671.42658   -500.96196    70.753475   -1584.0712 
   87600    19.629018      501    848.64248   -1902.1434    19.629018    19.629018    19.629018   -312.35944   -58.171384    654.08049   -1532.9874 
   87700    19.629018      501    841.37842   -1901.5596    19.629018    19.629018    19.629018     223.2362    754.83996    1083.6531   -1168.7844 
   87800    19.629018      501    833.52003    -1900.965    19.629018    19.629018    19.629018     552.0162    1221.5328    1019.0493    -584.5335 
   87900    19.629018      501    828.22783   -1900.5573    19.629018    19.629018    19.629018    888.79994    1508.7566    1167.3601   -9.7169312 
   88000    19.629018      501    823.32414   -1900.1909    19.629018    19.629018    19.629018    1321.3112     1853.823    1515.1034    595.00714 
   88100    19.629018      501    820.64615   -1899.9807    19.629018    19.629018    19.629018     1657.261     2182.473    1430.7617    1358.5483 
   88200    19.629018      501     815.7183   -1899.6349    19.629018    19.629018    19.629018    2184.5385    2589.2261    1735.7553    2228.6342 
   88300    19.629018      501    805.52628    -1898.956    19.629018    19.629018    19.629018    2669.6188    2960.3377    2150.7136    2897.8052 
   88400    19.629018      501     792.0743   -1898.0697    19.629018    19.629018    19.629018    3492.3626     3673.954    2808.7553    3994.3784 
   88500    19.629018      501    781.03567   -1897.3383    19.629018    19.629018    19.629018    4398.3904    4604.8111    3452.9409    5137.4193 
   88600    19.629018      501    774.13643   -1896.8699    19.629018    19.629018    19.629018     4898.883     4963.071    3958.0163    5775.5617 
   88700    19.629018      501    772.81155   -1896.7551    19.629018    19.629018    19.629018    5202.1669    4887.5133    4618.5773    6100.4101 
   88800    19.629018      501    778.95649    -1897.116    19.629018    19.629018    19.629018    4903.3992    4542.4846    4515.7679     5651.945 
   88900    19.629018      501    785.97332   -1897.5277    19.629018    19.629018    19.629018    4620.9601    4076.8897    4495.7098    5290.2809 
   89000    19.629018      501    790.99375   -1897.8068    19.629018    19.629018    19.629018    4116.2071    3635.4433    4346.0314    4367.1468 
   89100    19.629018      501    793.08241   -1897.8944    19.629018    19.629018    19.629018    4158.4991    3644.2566    4723.2222    4108.0183 
   89200    19.629018      501    793.65584   -1897.8828    19.629018    19.629018    19.629018     4085.867    3378.0478    4963.4957    3916.0575 
   89300    19.629018      501    793.81628   -1897.8432    19.629018    19.629018    19.629018    4097.5766    3072.8664    5010.2271    4209.6363 
   89400    19.629018      501    795.56744   -1897.9052    19.629018    19.629018    19.629018     4133.667    2972.8762    4880.4958     4547.629 
   89500    19.629018      501    800.96012   -1898.2015    19.629018    19.629018    19.629018    3917.8719    2519.9897    4439.8881    4793.7379 
   89600    19.629018      501    808.39444     -1898.63    19.629018    19.629018    19.629018    3434.4469    2113.6058     3453.751    4735.9839 
   89700    19.629018      501    816.65707   -1899.1147    19.629018    19.629018    19.629018    2728.6126     1583.421     2133.637    4468.7799 
   89800    19.629018      501    824.81987    -1899.598    19.629018    19.629018    19.629018     2353.527    1502.7418    1222.4845    4335.3546 
   89900    19.629018      501    832.62472   -1900.0661    19.629018    19.629018    19.629018     2080.488    1573.4191    709.35467    3958.6902 
   90000    19.629018      501    839.03897   -1900.4549    19.629018    19.629018    19.629018    1803.1015    1773.0206    120.77214    3515.5119 
   90100    19.629018      501     843.5872    -1900.736    19.629018    19.629018    19.629018    1571.4154    2050.5774   -256.94116    2920.6098 
   90200    19.629018      501    847.38567   -1900.9835    19.629018    19.629018    19.629018    1297.1996    2016.2333   -504.31944     2379.685 
   90300    19.629018      501    847.53599   -1901.0114    19.629018    19.629018    19.629018    1216.6811    2017.7952   -144.74174      1776.99 
   90400    19.629018      501     841.3934   -1900.6489    19.629018    19.629018    19.629018    1552.4253    2413.9021    809.09424    1434.2795 
   90500    19.629018      501    830.42438   -1899.9883    19.629018    19.629018    19.629018    1891.3934    2448.7534    1669.0631    1556.3636 
   90600    19.629018      501     816.8267   -1899.1679    19.629018    19.629018    19.629018    2483.2653    2731.2573    2621.3263    2097.2122 
   90700    19.629018      501     801.9908   -1898.2729    19.629018    19.629018    19.629018    3642.7883    3724.0711    4004.4885    3199.8054 
   90800    19.629018      501    787.91297   -1897.4273    19.629018    19.629018    19.629018    4415.0272    4413.1774    4673.0088    4158.8953 
   90900    19.629018      501    780.85404    -1897.032    19.629018    19.629018    19.629018    4842.9439    4703.9343    5065.0863    4759.8109 
   91000    19.629018      501      781.775   -1897.1474    19.629018    19.629018    19.629018    4932.7689    4795.7475     4945.281    5057.2783 
   91100    19.629018      501     790.6679   -1897.7738    19.629018    19.629018    19.629018    4378.2832     4236.301    4130.1768    4768.3717 
   91200    19.629018      501    804.06254   -1898.6901    19.629018    19.629018    19.629018    3610.3184    3097.7083    3565.4425    4167.8044 
   91300    19.629018      501     818.1339   -1899.6536    19.629018    19.629018    19.629018     2874.155    2040.8504    2806.1343    3775.4802 
   91400    19.629018      501    825.13834   -1900.1683    19.629018    19.629018    19.629018    2489.8989    1345.0371    2799.7214    3324.9383 
   91500    19.629018      501    820.09536   -1899.9141    19.629018    19.629018    19.629018    2408.9288    1162.8979    3069.9415    2993.9468 
   91600    19.629018      501    810.43707   -1899.3693    19.629018    19.629018    19.629018    2204.2455    970.13944    3005.5597    2637.0375 
   91700    19.629018      501    798.72321    -1898.696    19.629018    19.629018    19.629018    2583.6996    1475.1471     3619.635    2656.3166 
   91800    19.629018      501    789.56893   -1898.1889    19.629018    19.629018    19.629018    3090.3543    2026.0929    4325.6313    2919.3387 
   91900    19.629018      501    791.39895   -1898.3906    19.629018    19.629018    19.629018    3150.0286    2251.8546     4164.543    3033.6883 
   92000    19.629018      501    799.96402    -1899.028    19.629018    19.629018    19.629018    2716.3876    2094.2438    3488.8628    2566.0563 
   92100    19.629018      501    810.22633   -1899.7786    19.629018    19.629018    19.629018    2341.5541     2054.479    2649.7939    2320.3894 
   92200    19.629018      501      820.459   -1900.5345    19.629018    19.629018    19.629018    1609.1228    1589.4935    1260.5782    1977.2965 
   92300    19.629018      501    826.14496   -1901.0072    19.629018    19.629018    19.629018    1119.7551    1112.5649    571.55083    1675.1495 
   92400    19.629018      501    823.22751    -1900.936    19.629018    19.629018    19.629018     1075.775    956.07081    601.54441    1669.7097 
   92500    19.629018      501    816.38087   -1900.6214    19.629018    19.629018    19.629018    1055.0499    793.02779    661.73811    1710.3839 
   92600    19.629018      501    808.00249   -1900.2158    19.629018    19.629018    19.629018    1237.3784     685.4357    1219.2803    1807.4191 
   92700    19.629018      501    799.80742   -1899.8275    19.629018    19.629018    19.629018    1415.2977    318.07016    1976.4068    1951.4162 
   92800    19.629018      501    792.56346   -1899.5033    19.629018    19.629018    19.629018    1624.5643    429.98768    2469.2132    1974.4919 
   92900    19.629018      501    792.88548   -1899.6694    19.629018    19.629018    19.629018    1548.4435     331.7152    2749.2153    1564.3999 
   93000    19.629018      501    798.09304   -1900.1538    19.629018    19.629018    19.629018    1295.0237    381.54789    2612.1836     891.3397 
   93100    19.629018      501    806.94197   -1900.8785    19.629018    19.629018    19.629018    1104.0703    529.89909      2301.97     480.3419 
   93200    19.629018      501    812.74054   -1901.4136    19.629018    19.629018    19.629018    837.35163    468.91521     1900.543    142.59665 
   93300    19.629018      501    813.51911    -1901.633    19.629018    19.629018    19.629018    589.14601    131.05784    1671.9765   -35.596338 
   93400    19.629018      501    808.07855   -1901.4582    19.629018    19.629018    19.629018    1037.3517     316.2289    2346.8172    449.00897 
   93500    19.629018      501    798.26287   -1901.0052    19.629018    19.629018    19.629018    1311.4831    223.53234    2953.9416    756.97536 
   93600    19.629018      501     789.4592   -1900.6184    19.629018    19.629018    19.629018    1505.0425    199.29119    3281.6337    1034.2027 
   93700    19.629018      501    782.83237   -1900.3704    19.629018    19.629018    19.629018    1500.2961    134.33975    3279.5002    1087.0485 
   93800    19.629018      501    781.73518   -1900.4762    19.629018    19.629018    19.629018    1269.7151   -188.79584    3049.0465     948.8947 
   93900    19.629018      501    781.92848   -1900.6619    19.629018    19.629018    19.629018    978.46751   -196.05921    2569.1579    562.30388 
   94000    19.629018      501    785.20985   -1901.0437    19.629018    19.629018    19.629018    664.81691   -62.359388    2090.8396   -34.029438 
   94100    19.629018      501    787.07234   -1901.3314    19.629018    19.629018    19.629018    309.43762    100.70184    1657.1251   -829.51407 
   94200    19.629018      501    789.84766   -1901.6757    19.629018    19.629018    19.629018     -39.9546    166.30193    1374.4276   -1660.5933 
   94300    19.629018      501    790.75694   -1901.8977    19.629018    19.629018    19.629018    -447.9394    413.18455    870.22368   -2627.2264 
   94400    19.629018      501    790.99829   -1902.0745    19.629018    19.629018    19.629018   -564.59316    900.36004     656.8366   -3250.9761 
   94500    19.629018      501    792.44992   -1902.3276    19.629018    19.629018    19.629018   -808.52266    851.20437    487.75122   -3764.5236 
   94600    19.629018      501    789.08187   -1902.2671    19.629018    19.629018    19.629018   -704.40559    1022.7648    638.51967   -3774.5013 
   94700    19.629018      501    782.42562   -1901.9898    19.629018    19.629018    19.629018   -247.45481    1352.5095    942.34084   -3037.2148 
   94800    19.629018      501    769.95706   -1901.3296    19.629018    19.629018    19.629018    410.54146    1842.1291    1480.0086   -2090.5133 
   94900    19.629018      501     752.3649   -1900.3261    19.629018    19.629018    19.629018    1500.2686    2682.3256     2084.144   -265.66372 
   95000    19.629018      501     737.3238   -1899.4705    19.629018    19.629018    19.629018    2030.2425    2699.4138     2334.018    1057.2956 
   95100    19.629018      501    726.65469    -1898.877    19.629018    19.629018    19.629018    2384.7431    2663.5509    2278.2481    2212.4304 
   95200    19.629018      501    724.06847   -1898.7839    19.629018    19.629018    19.629018    2368.5775    2340.2575     1937.713    2827.7619 
   95300    19.629018      501       729.98   -1899.2184    19.629018    19.629018    19.629018    2031.4501    1896.6657    1138.6017    3059.0829 
   95400    19.629018      501    743.51114   -1900.1256    19.629018    19.629018    19.629018    1669.8725    1375.1305    587.27536    3047.2118 
   95500    19.629018      501    758.89597   -1901.1364    19.629018    19.629018    19.629018    956.64396    423.64434    69.373918    2376.9136 
   95600    19.629018      501    770.64745   -1901.8999    19.629018    19.629018    19.629018    451.09568    -332.5386   -80.241031    1766.0667 
   95700    19.629018      501    775.45348   -1902.2053    19.629018    19.629018    19.629018    104.77875    -868.9373   -145.16864    1328.4422 
   95800    19.629018      501    772.73747   -1902.0165    19.629018    19.629018    19.629018   -200.08912   -1082.5278    -288.5547    770.81515 
   95900    19.629018      501    764.86705   -1901.4857    19.629018    19.629018    19.629018    -229.7928   -892.25362   -339.05493    541.93014 
   96000    19.629018      501    762.15845   -1901.2772    19.629018    19.629018    19.629018   -227.83532   -671.30602   -147.07631    134.87637 
   96100    19.629018      501    770.12785   -1901.7463    19.629018    19.629018    19.629018   -780.12946   -812.90676   -570.09686   -957.38475 
   96200    19.629018      501    787.55643   -1902.8149    19.629018    19.629018    19.629018    -1580.266   -1214.3178   -1270.9676   -2255.5126 
   96300    19.629018      501    811.10009   -1904.2711    19.629018    19.629018    19.629018   -2373.2746   -1774.0366   -1968.7544   -3377.0328 
   96400    19.629018      501    828.21688   -1905.3108    19.629018    19.629018    19.629018   -3172.8232   -2310.1021   -2807.2845   -4401.0829 
   96500    19.629018      501    836.23701   -1905.7678    19.629018    19.629018    19.629018   -3325.1874   -2621.3546   -2767.8627   -4586.3449 
   96600    19.629018      501    830.13551    -1905.321    19.629018    19.629018    19.629018   -3202.5862   -2491.9943   -2611.5818   -4504.1824 
   96700    19.629018      501    812.94625   -1904.1652    19.629018    19.629018    19.629018   -2400.1683    -1683.663   -1727.5932   -3789.2487 
   96800    19.629018      501    790.85427    -1902.695    19.629018    19.629018    19.629018   -1310.7275   -713.55593   -792.38208   -2426.2444 
   96900    19.629018      501    768.45196   -1901.2001    19.629018    19.629018    19.629018    95.013148    547.57378    304.49426    -567.0286 
   97000    19.629018      501    751.27256   -1900.0304    19.629018    19.629018    19.629018    1077.5419    1401.0394    1131.7435    699.84279 
   97100    19.629018      501    741.49154   -1899.3198    19.629018    19.629018    19.629018    1665.7057    1975.1766     1709.585    1312.3555 
   97200    19.629018      501     739.0327   -1899.0578    19.629018    19.629018    19.629018    1784.8914    1885.3574    2005.2443    1464.0727 
   97300    19.629018      501     742.4445    -1899.146    19.629018    19.629018    19.629018    1790.0301    1644.8267    2317.5784     1407.685 
   97400    19.629018      501    749.89861   -1899.4628    19.629018    19.629018    19.629018    1749.5437    1324.7877    2557.3498    1366.4936 
   97500    19.629018      501    759.46258   -1899.8807    19.629018    19.629018    19.629018     1558.679    872.99239    2676.0743    1126.9702 
   97600    19.629018      501    768.56405   -1900.2325    19.629018    19.629018    19.629018    1399.5633    356.02585    2817.7579    1024.9062 
   97700    19.629018      501    777.23734   -1900.5205    19.629018    19.629018    19.629018    1018.8398    -207.1021    2515.4289    748.19269 
   97800    19.629018      501    785.54784     -1900.75    19.629018    19.629018    19.629018    827.55281   -583.23215    2297.0553    768.83529 
   97900    19.629018      501    790.34788   -1900.7213    19.629018    19.629018    19.629018    867.34818   -582.68323     2195.324    989.40376 
   98000    19.629018      501     794.4052   -1900.6185    19.629018    19.629018    19.629018    1027.4559   -209.73798    2000.3256      1291.78 
   98100    19.629018      501    800.79457   -1900.6454    19.629018    19.629018    19.629018    1180.8566    324.42971    1731.6176    1486.5226 
   98200    19.629018      501    808.45531   -1900.7412    19.629018    19.629018    19.629018    1085.0197    389.05597    1407.0785    1458.9246 
   98300    19.629018      501    817.36651   -1900.9138    19.629018    19.629018    19.629018    992.93318    618.08782    1027.1036    1333.6081 
   98400    19.629018      501    821.98193   -1900.8161    19.629018    19.629018    19.629018    1133.8086    1064.2216    928.91922    1408.2851 
   98500    19.629018      501      821.784   -1900.4257    19.629018    19.629018    19.629018    1139.3216    1280.9092    780.70598    1356.3496 
   98600    19.629018      501    820.43164   -1899.9859    19.629018    19.629018    19.629018    1331.3032    1625.4772    826.62171    1541.8106 
   98700    19.629018      501    817.75362   -1899.4895    19.629018    19.629018    19.629018    1540.3888    1824.5282    1037.6666    1758.9718 
   98800    19.629018      501    821.10907   -1899.4123    19.629018    19.629018    19.629018    1469.6845    1610.6404    868.53346    1929.8795 
   98900    19.629018      501    828.35243   -1899.6155    19.629018    19.629018    19.629018    1477.6223    1597.9212    857.32673     1977.619 
   99000    19.629018      501    838.43787   -1900.0324    19.629018    19.629018    19.629018    1505.5557    1540.8061    809.53722    2166.3237 
   99100    19.629018      501    849.44934   -1900.5406    19.629018    19.629018    19.629018    1156.5189    1095.3019    228.32939    2145.9254 
   99200    19.629018      501    856.00513   -1900.7939    19.629018    19.629018    19.629018    997.57132    721.68881    128.89215     2142.133 
   99300    19.629018      501    855.46595   -1900.6223    19.629018    19.629018    19.629018    1294.2344    967.66144    580.74968    2334.2922 
   99400    19.629018      501    846.30614   -1899.9246    19.629018    19.629018    19.629018    2046.2142    1690.6236    1573.8405    2874.1786 
   99500    19.629018      501    831.68662   -1898.8996    19.629018    19.629018    19.629018    3078.2723    2665.0524    2967.1583    3602.6063 
   99600    19.629018      501    816.55333   -1897.8593    19.629018    19.629018    19.629018    3654.2994    3503.0642    3881.3179    3578.5159 
   99700    19.629018      501      805.543   -1897.0966    19.629018    19.629018    19.629018    4286.1967    4638.1657    4850.4741    3369.9504 
   99800    19.629018      501    801.80355   -1896.8099    19.629018    19.629018    19.629018    4804.9548    5756.4203    5625.7851     3032.659 
   99900    19.629018      501    806.23586   -1897.0551    19.629018    19.629018    19.629018    5026.5833    6385.8255     5970.584    2723.3403 
  100000    19.629018      501    809.28595   -1897.2153    19.629018    19.629018    19.629018    4709.5496    6364.8676     5829.502     1934.279 
Loop time of 71.3141 on 1 procs for 100000 steps with 501 atoms

Performance: 12.115 ns/day, 1.981 hours/ns, 1402.247 timesteps/s
99.2% CPU use with 1 MPI tasks x no OpenMP threads

MPI task timing breakdown:
Section |  min time  |  avg time  |  max time  |%varavg| %total
---------------------------------------------------------------
Pair    | 68.468     | 68.468     | 68.468     |   0.0 | 96.01
Neigh   | 0.17984    | 0.17984    | 0.17984    |   0.0 |  0.25
Comm    | 0.74764    | 0.74764    | 0.74764    |   0.0 |  1.05
Output  | 0.89309    | 0.89309    | 0.89309    |   0.0 |  1.25
Modify  | 0.76991    | 0.76991    | 0.76991    |   0.0 |  1.08
Other   |            | 0.2553     |            |       |  0.36

Nlocal:    501 ave 501 max 501 min
Histogram: 1 0 0 0 0 0 0 0 0 0
Nghost:    1957 ave 1957 max 1957 min
Histogram: 1 0 0 0 0 0 0 0 0 0
Neighs:    27559 ave 27559 max 27559 min
Histogram: 1 0 0 0 0 0 0 0 0 0

Total # of neighbors = 27559
Ave neighs/atom = 55.008
Neighbor list builds = 230
Dangerous builds = 0
Total wall time: 0:01:11
