# PdH_x; x = 0.4
2867 atoms
2 atom types
0.435006 32.8794 xlo xhi
0.435006 32.8794 ylo yhi
0.435006 32.8794 zlo zhi

Atoms

1 1 31.8486 31.8972 31.905
2 1 1.41982 1.48826 31.907
3 1 1.39202 31.89 1.49684
4 1 31.8413 1.47767 1.45158
5 1 3.46982 31.8476 31.8998
6 1 5.47689 1.48682 31.9011
7 1 5.48662 31.8499 1.48196
8 1 3.44017 1.48624 1.48333
9 1 7.49751 31.8473 31.9072
10 1 9.55672 1.47218 31.8893
11 1 9.53879 31.8058 1.48124
12 1 7.49895 1.45965 1.48649
13 1 11.5904 31.861 31.8735
14 1 13.6336 1.42608 31.8771
15 1 13.6441 31.823 1.47546
16 1 11.5957 1.45948 1.47093
17 1 15.6827 31.8533 31.8996
18 1 17.6763 1.41361 31.887
19 1 17.7168 31.8403 1.48421
20 1 15.6706 1.4715 1.42811
21 1 19.7015 31.8888 31.8957
22 1 21.7524 1.48201 31.8651
23 1 21.7471 31.8854 1.45366
24 1 19.74 1.48905 1.43985
25 1 23.7463 31.9278 31.9074
26 1 25.7844 1.48805 31.8695
27 1 25.7995 31.9033 1.46151
28 1 23.7714 1.46314 1.47773
29 1 27.8464 31.9222 31.8478
30 1 29.8654 1.4736 31.8361
31 1 29.8649 31.8995 1.47003
32 1 27.8457 1.44325 1.47839
33 1 31.8825 3.51833 31.8629
34 1 1.4491 5.5477 31.8735
35 1 1.4041 3.51189 1.43014
36 1 31.8283 5.49496 1.44731
37 1 3.46352 3.56675 31.9019
38 1 5.49527 5.56092 31.9125
39 1 5.48044 3.54034 1.43078
40 1 3.47392 5.55085 1.44742
41 1 7.47843 3.56881 31.8823
42 1 9.49957 5.56019 31.8774
43 1 9.54667 3.55209 1.45652
44 1 7.49315 5.59218 1.44514
45 1 11.576 3.48131 31.9273
46 1 13.6389 5.51 31.8318
47 1 13.6334 3.52322 1.44563
48 1 11.5719 5.53606 1.41299
49 1 15.69 3.45857 31.913
50 1 17.712 5.51966 31.8919
51 1 17.7057 3.48492 1.43839
52 1 15.653 5.50451 1.39306
53 1 19.7209 3.47613 31.8898
54 1 21.7535 5.5184 31.8641
55 1 21.7397 3.48493 1.42358
56 1 19.7435 5.45639 1.41113
57 1 23.8094 3.46304 31.8797
58 1 25.8047 5.46792 31.8831
59 1 25.8187 3.44386 1.4716
60 1 23.7859 5.48884 1.48025
61 1 27.8071 3.46899 31.8536
62 1 29.8501 5.5056 31.9063
63 1 29.86 3.47822 1.48359
64 1 27.8689 5.47889 1.44926
65 1 31.8824 7.54091 31.8753
66 1 1.48511 9.55048 31.8825
67 1 1.45517 7.55651 1.45953
68 1 31.8612 9.55187 1.44848
69 1 3.50332 7.54673 31.879
70 1 5.53389 9.60652 31.9035
71 1 5.51682 7.5891 1.43728
72 1 3.52674 9.56955 1.43596
73 1 7.48646 7.6158 31.9408
74 1 9.4782 9.64042 31.8909
75 1 9.51913 7.5655 1.43042
76 1 7.49991 9.59753 1.42836
77 1 11.5415 7.57283 31.9023
78 1 13.6193 9.64108 31.8447
79 1 13.6184 7.54121 1.39581
80 1 11.5406 9.59058 1.4089
81 1 15.6977 7.56383 31.8933
82 1 17.6865 9.61881 31.8407
83 1 17.6883 7.5307 1.42698
84 1 15.6492 9.58126 1.38542
85 1 19.7468 7.53768 31.9102
86 1 21.7156 9.58296 31.8865
87 1 21.7728 7.52301 1.44521
88 1 19.7127 9.58489 1.47285
89 1 23.7837 7.52866 31.9168
90 1 25.8062 9.58277 31.9181
91 1 25.8085 7.53931 1.47348
92 1 23.7931 9.54218 1.48403
93 1 27.8173 7.52124 31.8746
94 1 29.8578 9.54015 31.9111
95 1 29.84 7.51219 1.50331
96 1 27.8367 9.58184 1.4968
97 1 31.8661 11.588 31.8683
98 1 1.49671 13.5983 31.8669
99 1 1.5004 11.5585 1.45441
100 1 31.8491 13.6061 1.46913
101 1 3.52195 11.6096 31.8921
102 1 5.57737 13.5971 31.9078
103 1 5.54779 11.5986 1.45687
104 1 3.58457 13.6117 1.43693
105 1 7.51233 11.6265 31.9206
106 1 9.52753 13.6263 31.892
107 1 9.49167 11.6436 1.43129
108 1 7.53198 13.6283 1.42764
109 1 11.5408 11.7073 31.8698
110 1 13.5624 13.6736 31.8275
111 1 13.585 11.6369 1.39829
112 1 11.4982 13.6628 1.37836
113 1 15.6558 11.6649 31.8515
114 1 17.6707 13.6947 31.8272
115 1 17.6678 11.6448 1.38467
116 1 15.6314 13.6684 1.38226
117 1 19.6904 11.654 31.8809
118 1 21.7262 13.6717 31.8768
119 1 21.7573 11.6467 1.48054
120 1 19.7418 13.6825 1.43429
121 1 23.7821 11.62 31.8998
122 1 25.7828 13.62 31.8825
123 1 25.8154 11.6098 1.50569
124 1 23.7537 13.666 1.46988
125 1 27.7933 11.6034 31.8777
126 1 29.8252 13.6281 31.8844
127 1 29.8225 11.5672 1.5032
128 1 27.804 13.6173 1.46996
129 1 31.8554 15.6245 31.8286
130 1 1.48115 17.7175 31.8696
131 1 1.52845 15.7101 1.40097
132 1 31.893 17.7148 1.42138
133 1 3.56218 15.5935 31.8753
134 1 5.55495 17.6659 31.8916
135 1 5.57748 15.6596 1.45184
136 1 3.53027 17.713 1.4382
137 1 7.56839 15.5891 31.8817
138 1 9.60997 17.6318 31.8644
139 1 9.52168 15.6361 1.44279
140 1 7.55747 17.662 1.44408
141 1 11.5664 15.6244 31.84
142 1 13.5638 17.6304 31.8251
143 1 13.5389 15.6438 1.40599
144 1 11.5325 17.6557 1.38643
145 1 15.6051 15.6734 31.819
146 1 17.6549 17.6727 31.8414
147 1 17.7026 15.6854 1.41836
148 1 15.5884 17.6281 1.39495
149 1 19.6898 15.6754 31.8674
150 1 21.777 17.6903 31.8173
151 1 21.7381 15.6507 1.48875
152 1 19.7618 17.721 1.41296
153 1 23.7768 15.6951 31.8369
154 1 25.7667 17.7146 31.8544
155 1 25.7836 15.6729 1.53042
156 1 23.7554 17.711 1.46719
157 1 27.8025 15.6856 31.8228
158 1 29.8061 17.6992 31.8962
159 1 29.8101 15.6836 1.49257
160 1 27.7903 17.7254 1.46657
161 1 31.8799 19.7528 31.8465
162 1 1.46099 21.7714 31.8783
163 1 1.47943 19.7419 1.45407
164 1 31.8704 21.8147 1.44491
165 1 3.52675 19.7567 31.9277
166 1 5.53458 21.7653 31.8764
167 1 5.54521 19.7434 1.45707
168 1 3.49581 21.7821 1.45226
169 1 7.54949 19.6959 31.9172
170 1 9.5924 21.7424 31.8627
171 1 9.54949 19.6972 1.44067
172 1 7.55862 21.7601 1.45057
173 1 11.5991 19.6711 31.8583
174 1 13.6298 21.6999 31.8362
175 1 13.5738 19.6839 1.4152
176 1 11.5636 21.7394 1.43011
177 1 15.6692 19.6795 31.8467
178 1 17.6955 21.7475 31.8261
179 1 17.7559 19.7151 1.36915
180 1 15.684 21.7794 1.41299
181 1 19.7529 19.7224 31.8397
182 1 21.8053 21.7734 31.8297
183 1 21.7453 19.7442 1.46878
184 1 19.7581 21.7658 1.42855
185 1 23.7498 19.7481 31.8502
186 1 25.7249 21.793 31.8238
187 1 25.7496 19.7509 1.47804
188 1 23.748 21.7799 1.45145
189 1 27.7828 19.7413 31.8417
190 1 29.8252 21.7823 31.9126
191 1 29.8555 19.7523 1.46709
192 1 27.7995 21.7866 1.46915
193 1 31.8754 23.8052 31.9123
194 1 1.44778 25.8213 31.9167
195 1 1.46149 23.7921 1.4783
196 1 31.885 25.7762 1.48215
197 1 3.49173 23.7895 31.8997
198 1 5.49162 25.8099 31.9534
199 1 5.49173 23.809 1.46812
200 1 3.51508 25.7777 1.50758
201 1 7.51558 23.7872 31.9116
202 1 9.56811 25.7823 31.8944
203 1 9.52296 23.7873 1.44935
204 1 7.49386 25.8006 1.48828
205 1 11.6108 23.7465 31.8574
206 1 13.6426 25.8198 31.8539
207 1 13.6648 23.8132 1.46043
208 1 11.5751 25.7928 1.44483
209 1 15.6892 23.755 31.8306
210 1 17.7521 25.8198 31.8814
211 1 17.7723 23.7858 1.45231
212 1 15.7302 25.785 1.47334
213 1 19.7794 23.7699 31.8962
214 1 21.7711 25.7852 31.8587
215 1 21.7361 23.7685 1.45626
216 1 19.7489 25.7735 1.46685
217 1 23.7487 23.7798 31.865
218 1 25.7292 25.8103 31.8772
219 1 25.7607 23.786 1.46545
220 1 23.7266 25.7828 1.46193
221 1 27.7726 23.7984 31.9163
222 1 29.8525 25.8132 31.8981
223 1 29.8383 23.788 1.47373
224 1 27.815 25.785 1.47975
225 1 31.878 27.8026 31.9195
226 1 1.43746 29.8239 31.8998
227 1 1.46821 27.8117 1.50092
228 1 31.8317 29.8843 1.48509
229 1 3.47416 27.8204 31.9426
230 1 5.48809 29.818 31.93
231 1 5.48398 27.7932 1.49704
232 1 3.4751 29.8216 1.50439
233 1 7.48619 27.8073 31.8915
234 1 9.5162 29.8185 31.9455
235 1 9.51491 27.8118 1.47249
236 1 7.52526 29.7985 1.53141
237 1 11.6033 27.8117 31.8342
238 1 13.6682 29.8424 31.902
239 1 13.6485 27.8326 1.4894
240 1 11.5732 29.829 1.51056
241 1 15.7236 27.8462 31.8248
242 1 17.7404 29.8552 31.9061
243 1 17.7782 27.8509 1.45958
244 1 15.7251 29.8545 1.50487
245 1 19.7363 27.8348 31.8399
246 1 21.7161 29.8784 31.9121
247 1 21.7326 27.8636 1.45697
248 1 19.7349 29.8664 1.46161
249 1 23.7441 27.7986 31.8898
250 1 25.7822 29.863 31.8718
251 1 25.7752 27.8647 1.44429
252 1 23.753 29.8792 1.46271
253 1 27.8134 27.8324 31.8724
254 1 29.8646 29.8712 31.9193
255 1 29.8422 27.854 1.48998
256 1 27.839 29.9103 1.4909
257 1 31.8251 31.8983 3.50123
258 1 1.39638 1.44015 3.50174
259 1 1.38321 31.8697 5.51715
260 1 31.8026 1.4595 5.54589
261 1 3.4416 31.8436 3.51059
262 1 5.48046 1.43257 3.46431
263 1 5.47531 31.7634 5.51522
264 1 3.41109 1.45603 5.47044
265 1 7.47934 31.8084 3.52611
266 1 9.54492 1.46146 3.49021
267 1 9.52969 31.7905 5.53034
268 1 7.51053 1.39956 5.46979
269 1 11.5996 31.8301 3.49845
270 1 13.6158 1.43786 3.50355
271 1 13.6395 31.8705 5.51773
272 1 11.6165 1.4293 5.46969
273 1 15.7286 31.8654 3.50334
274 1 17.7236 1.43353 3.45077
275 1 17.7354 31.8726 5.50422
276 1 15.6316 1.46077 5.49921
277 1 19.7368 31.9173 3.48226
278 1 21.7763 1.46335 3.49245
279 1 21.7708 31.9079 5.51734
280 1 19.786 1.48737 5.51025
281 1 23.7744 31.9552 3.49036
282 1 25.8225 1.49292 3.53966
283 1 25.8557 31.9416 5.57277
284 1 23.8115 1.48381 5.54067
285 1 27.8593 31.9207 3.53857
286 1 29.817 1.48688 3.54139
287 1 29.816 31.9576 5.55285
288 1 27.853 1.47125 5.57577
289 1 31.7787 3.48011 3.48355
290 1 1.41805 5.55355 3.47352
291 1 1.38575 3.47859 5.51639
292 1 31.8117 5.47603 5.53478
293 1 3.46506 3.52766 3.45875
294 1 5.49048 5.58186 3.40096
295 1 5.45369 3.50728 5.49488
296 1 3.44495 5.53871 5.4518
297 1 7.52107 3.50723 3.43592
298 1 9.50538 5.53751 3.40628
299 1 9.55331 3.49039 5.44895
300 1 7.49211 5.56747 5.39324
301 1 11.5816 3.50787 3.41266
302 1 13.6232 5.53061 3.43432
303 1 13.6605 3.46629 5.4539
304 1 11.615 5.54975 5.43917
305 1 15.6671 3.48958 3.41748
306 1 17.697 5.51192 3.43042
307 1 17.7035 3.48128 5.47703
308 1 15.6384 5.48773 5.45187
309 1 19.7582 3.46263 3.44801
310 1 21.8359 5.4999 3.48609
311 1 21.7911 3.43605 5.56536
312 1 19.7934 5.47164 5.52543
313 1 23.8158 3.44863 3.51059
314 1 25.8154 5.45021 3.52112
315 1 25.8478 3.44721 5.55726
316 1 23.8407 5.43039 5.54399
317 1 27.8429 3.4333 3.53075
318 1 29.8201 5.46239 3.49047
319 1 29.8015 3.43273 5.52725
320 1 27.8112 5.46573 5.54468
321 1 31.8467 7.52671 3.48352
322 1 1.47124 9.55652 3.4584
323 1 1.42454 7.54395 5.47132
324 1 31.8347 9.56868 5.50143
325 1 3.50897 7.55915 3.42943
326 1 5.5444 9.59634 3.39191
327 1 5.49879 7.58161 5.42004
328 1 3.50288 9.58425 5.45548
329 1 7.48897 7.59492 3.37912
330 1 9.50998 9.59523 3.37242
331 1 9.5028 7.56865 5.3852
332 1 7.50774 9.62835 5.3967
333 1 11.5543 7.55352 3.3733
334 1 13.5795 9.57754 3.40001
335 1 13.6215 7.58072 5.43417
336 1 11.5367 9.57676 5.39522
337 1 15.6725 7.51481 3.37127
338 1 17.7301 9.56272 3.45722
339 1 17.6957 7.52653 5.46514
340 1 15.6437 9.5352 5.43363
341 1 19.7632 7.53186 3.44202
342 1 21.7843 9.59585 3.48909
343 1 21.8156 7.54832 5.50363
344 1 19.7896 9.55993 5.47671
345 1 23.818 7.51688 3.4825
346 1 25.8105 9.59896 3.50403
347 1 25.8209 7.51868 5.52374
348 1 23.8036 9.60877 5.52528
349 1 27.7937 7.54164 3.52208
350 1 29.7855 9.54865 3.50552
351 1 29.7766 7.51763 5.51716
352 1 27.7906 9.56037 5.49375
353 1 31.8166 11.5611 3.49833
354 1 1.49299 13.6194 3.47328
355 1 1.44716 11.6011 5.47319
356 1 31.8234 13.623 5.52178
357 1 3.53472 11.5906 3.42668
358 1 5.57457 13.6164 3.4387
359 1 5.56717 11.6429 5.39704
360 1 3.54213 13.6129 5.45041
361 1 7.52674 11.6176 3.40859
362 1 9.49595 13.6647 3.38549
363 1 9.49014 11.6219 5.38747
364 1 7.54478 13.6171 5.39802
365 1 11.4969 11.6207 3.39279
366 1 13.5424 13.6607 3.38856
367 1 13.55 11.577 5.41839
368 1 11.4669 13.6413 5.41399
369 1 15.6462 11.6518 3.36435
370 1 17.7129 13.6744 3.40483
371 1 17.7275 11.5573 5.46709
372 1 15.6445 13.6407 5.41424
373 1 19.7749 11.6198 3.463
374 1 21.7756 13.6345 3.47603
375 1 21.8304 11.6066 5.46802
376 1 19.8116 13.6424 5.48526
377 1 23.82 11.6337 3.49687
378 1 25.7982 13.6196 3.52196
379 1 25.8087 11.6123 5.47824
380 1 23.8097 13.6338 5.5229
381 1 27.7483 11.5949 3.51367
382 1 29.7353 13.6219 3.52388
383 1 29.7776 11.5892 5.51455
384 1 27.7594 13.6194 5.53273
385 1 31.8252 15.6572 3.51672
386 1 1.46983 17.7478 3.45615
387 1 1.44646 15.6929 5.51113
388 1 31.8801 17.7203 5.54887
389 1 3.56862 15.6502 3.44495
390 1 5.57076 17.6945 3.44777
391 1 5.58141 15.6395 5.44261
392 1 3.50064 17.7445 5.50675
393 1 7.5631 15.6346 3.4164
394 1 9.50985 17.6282 3.42442
395 1 9.48661 15.6543 5.39801
396 1 7.55359 17.6782 5.48068
397 1 11.5048 15.6648 3.39171
398 1 13.5673 17.6676 3.40418
399 1 13.5383 15.6722 5.41381
400 1 11.4641 17.7017 5.46006
401 1 15.6395 15.6563 3.39237
402 1 17.7148 17.6829 3.38999
403 1 17.7463 15.6885 5.41301
404 1 15.7 17.7466 5.41094
405 1 19.7385 15.6699 3.4363
406 1 21.7871 17.7094 3.48945
407 1 21.791 15.6602 5.46258
408 1 19.7635 17.7428 5.45472
409 1 23.79 15.6716 3.53356
410 1 25.761 17.6893 3.54239
411 1 25.7901 15.6433 5.50241
412 1 23.76 17.6997 5.48821
413 1 27.7819 15.6644 3.5544
414 1 29.8211 17.7225 3.51427
415 1 29.8148 15.6744 5.52493
416 1 27.8096 17.7006 5.51885
417 1 31.8884 19.7602 3.47963
418 1 1.48221 21.767 3.46281
419 1 1.46409 19.7534 5.49585
420 1 31.8697 21.7721 5.52474
421 1 3.51335 19.7793 3.44224
422 1 5.51837 21.7683 3.46617
423 1 5.52208 19.7643 5.44689
424 1 3.50503 21.7776 5.49958
425 1 7.51651 19.7151 3.43706
426 1 9.52611 21.7746 3.45406
427 1 9.50575 19.7406 5.48107
428 1 7.49195 21.7858 5.50551
429 1 11.562 19.6988 3.4406
430 1 13.6335 21.7508 3.45602
431 1 13.621 19.7502 5.47347
432 1 11.5597 21.7717 5.47451
433 1 15.66 19.7504 3.41091
434 1 17.6996 21.7824 3.4721
435 1 17.7319 19.7766 5.46318
436 1 15.7006 21.7639 5.46566
437 1 19.7672 19.7654 3.44859
438 1 21.7579 21.7562 3.50336
439 1 21.7426 19.7886 5.46952
440 1 19.7356 21.7724 5.47405
441 1 23.7402 19.751 3.51019
442 1 25.7943 21.79 3.54182
443 1 25.784 19.7748 5.5525
444 1 23.772 21.7975 5.50172
445 1 27.8082 19.7613 3.52387
446 1 29.842 21.7731 3.4969
447 1 29.8557 19.7755 5.53015
448 1 27.8377 21.7929 5.51186
449 1 31.9099 23.8001 3.43852
450 1 1.50175 25.803 3.50149
451 1 1.48028 23.8082 5.47159
452 1 31.9041 25.7992 5.46636
453 1 3.5016 23.7809 3.47375
454 1 5.48167 25.8169 3.46987
455 1 5.46357 23.8044 5.52075
456 1 3.47341 25.833 5.49107
457 1 7.45555 23.8404 3.47367
458 1 9.50939 25.8281 3.44564
459 1 9.5241 23.8179 5.50963
460 1 7.47318 25.8574 5.49063
461 1 11.5943 23.7821 3.52462
462 1 13.666 25.822 3.50879
463 1 13.6247 23.7946 5.55203
464 1 11.5985 25.8004 5.53243
465 1 15.6964 23.7623 3.49578
466 1 17.7407 25.7954 3.50958
467 1 17.7366 23.7976 5.50064
468 1 15.7068 25.7827 5.52675
469 1 19.7559 23.7533 3.44634
470 1 21.7436 25.7896 3.51925
471 1 21.7378 23.7807 5.48153
472 1 19.7304 25.7632 5.48665
473 1 23.7528 23.7814 3.46952
474 1 25.7658 25.792 3.5222
475 1 25.8037 23.7941 5.514
476 1 23.7813 25.7743 5.48908
477 1 27.7959 23.768 3.46237
478 1 29.861 25.8019 3.53086
479 1 29.8608 23.7817 5.52206
480 1 27.8256 25.8057 5.49209
481 1 31.8974 27.8389 3.48335
482 1 1.45185 29.8574 3.51356
483 1 1.48231 27.8122 5.46803
484 1 31.815 29.8779 5.53023
485 1 3.49643 27.8207 3.48942
486 1 5.46288 29.7935 3.50129
487 1 5.45031 27.8338 5.48696
488 1 3.47641 29.7915 5.47681
489 1 7.45738 27.8009 3.50733
490 1 9.55272 29.778 3.49304
491 1 9.52946 27.7925 5.52781
492 1 7.47242 29.7879 5.48823
493 1 11.6162 27.8351 3.54276
494 1 13.6364 29.8254 3.51812
495 1 13.6567 27.8178 5.53552
496 1 11.6008 29.8093 5.50219
497 1 15.6955 27.82 3.56418
498 1 17.745 29.8835 3.48732
499 1 17.717 27.795 5.51885
500 1 15.6819 29.8335 5.54826
501 1 19.7388 27.8312 3.49685
502 1 21.7335 29.8967 3.49333
503 1 21.7385 27.8453 5.50073
504 1 19.7753 29.879 5.50751
505 1 23.7543 27.8007 3.43899
506 1 25.8459 29.9147 3.51185
507 1 25.8531 27.8583 5.5069
508 1 23.8052 29.9116 5.52403
509 1 27.8368 27.8747 3.51099
510 1 29.8144 29.9169 3.48491
511 1 29.8425 27.8408 5.49981
512 1 27.8452 29.921 5.51626
513 1 31.8066 31.9086 7.54556
514 1 1.34133 1.42467 7.52279
515 1 1.3768 31.8335 9.53754
516 1 31.804 1.45019 9.53859
517 1 3.43553 31.8122 7.51244
518 1 5.49104 1.40052 7.48605
519 1 5.39853 31.7652 9.49728
520 1 3.38093 1.4151 9.53926
521 1 7.48284 31.7801 7.49445
522 1 9.54897 1.40918 7.48065
523 1 9.56198 31.7728 9.50264
524 1 7.48545 1.38743 9.50491
525 1 11.5605 31.7966 7.51026
526 1 13.642 1.41651 7.51051
527 1 13.6195 31.8503 9.53273
528 1 11.662 1.45345 9.51762
529 1 15.6969 31.8734 7.51549
530 1 17.722 1.44492 7.54911
531 1 17.7528 31.9038 9.55352
532 1 15.6551 1.47403 9.54901
533 1 19.7453 31.9527 7.53875
534 1 21.8232 1.46254 7.57841
535 1 21.8106 31.9305 9.54175
536 1 19.8234 1.48075 9.56177
537 1 23.8407 31.9637 7.55896
538 1 25.8462 1.47357 7.56389
539 1 25.8452 31.9673 9.51459
540 1 23.8262 1.47984 9.53553
541 1 27.8311 31.9748 7.56191
542 1 29.8058 1.4618 7.55522
543 1 29.8261 31.9417 9.53832
544 1 27.8415 1.47536 9.51865
545 1 31.7515 3.46827 7.54469
546 1 1.34627 5.49427 7.4964
547 1 1.38509 3.44234 9.52126
548 1 31.7894 5.46534 9.53487
549 1 3.45254 3.48642 7.49978
550 1 5.49561 5.54088 7.49304
551 1 5.43864 3.51486 9.49506
552 1 3.4278 5.50624 9.52362
553 1 7.50095 3.45683 7.46874
554 1 9.55007 5.5263 7.45787
555 1 9.57469 3.49743 9.49516
556 1 7.504 5.56421 9.50927
557 1 11.6001 3.50928 7.49834
558 1 13.5899 5.53834 7.45196
559 1 13.6603 3.47244 9.54659
560 1 11.6148 5.54299 9.50633
561 1 15.6668 3.47346 7.52715
562 1 17.7352 5.4931 7.54826
563 1 17.7353 3.47265 9.57294
564 1 15.686 5.51218 9.57802
565 1 19.7876 3.43608 7.55476
566 1 21.8192 5.43787 7.58224
567 1 21.8291 3.4513 9.54049
568 1 19.8024 5.46421 9.56569
569 1 23.8368 3.41342 7.57126
570 1 25.8378 5.43919 7.53706
571 1 25.8494 3.42348 9.51353
572 1 23.8479 5.44909 9.53619
573 1 27.8363 3.42076 7.55953
574 1 29.7994 5.45009 7.53591
575 1 29.7787 3.41323 9.52407
576 1 27.8002 5.40831 9.52557
577 1 31.771 7.49281 7.53699
578 1 1.44955 9.57563 7.4722
579 1 1.37342 7.52464 9.56321
580 1 31.7831 9.56379 9.55412
581 1 3.48326 7.58487 7.47304
582 1 5.51168 9.57914 7.45653
583 1 5.45709 7.51898 9.49509
584 1 3.43322 9.58999 9.52094
585 1 7.48813 7.60311 7.44329
586 1 9.48267 9.58689 7.44542
587 1 9.57302 7.54968 9.49858
588 1 7.52653 9.60153 9.5005
589 1 11.5759 7.53843 7.47061
590 1 13.5902 9.56683 7.46114
591 1 13.6323 7.55926 9.5086
592 1 11.576 9.53014 9.49123
593 1 15.675 7.51457 7.52716
594 1 17.7155 9.54638 7.47049
595 1 17.7067 7.5054 9.54335
596 1 15.6258 9.48804 9.52436
597 1 19.785 7.51023 7.52843
598 1 21.8638 9.5814 7.48268
599 1 21.8735 7.48454 9.52413
600 1 19.8153 9.5609 9.53638
601 1 23.8647 7.51323 7.55668
602 1 25.8046 9.56207 7.5114
603 1 25.8262 7.50837 9.50993
604 1 23.8692 9.5368 9.50309
605 1 27.7891 7.50331 7.51265
606 1 29.7655 9.57323 7.5155
607 1 29.7559 7.51661 9.53413
608 1 27.7834 9.61191 9.54494
609 1 31.7687 11.5938 7.49998
610 1 1.4397 13.663 7.49595
611 1 1.40551 11.6478 9.547
612 1 31.8274 13.6769 9.53578
613 1 3.49778 11.574 7.51545
614 1 5.56086 13.6756 7.41972
615 1 5.50304 11.632 9.51529
616 1 3.43758 13.6462 9.50974
617 1 7.53738 11.6041 7.44466
618 1 9.52768 13.6643 7.44541
619 1 9.51043 11.5974 9.48938
620 1 7.56324 13.6137 9.50687
621 1 11.4971 11.607 7.43308
622 1 13.528 13.6338 7.46902
623 1 13.5564 11.5584 9.51028
624 1 11.5098 13.6252 9.47686
625 1 15.6555 11.584 7.46731
626 1 17.7517 13.6234 7.46627
627 1 17.7364 11.5692 9.4923
628 1 15.6452 13.6444 9.52688
629 1 19.7915 11.6179 7.48828
630 1 21.8347 13.6468 7.46286
631 1 21.831 11.599 9.48031
632 1 19.7897 13.6341 9.47221
633 1 23.8534 11.6539 7.49949
634 1 25.7797 13.6328 7.48597
635 1 25.8466 11.6084 9.50476
636 1 23.8437 13.6419 9.47696
637 1 27.782 11.6168 7.51347
638 1 29.757 13.6065 7.51239
639 1 29.7568 11.6194 9.5225
640 1 27.7911 13.6341 9.51354
641 1 31.8228 15.71 7.53157
642 1 1.46286 17.7674 7.53176
643 1 1.4021 15.7068 9.54939
644 1 31.8293 17.7169 9.54506
645 1 3.51323 15.7238 7.51715
646 1 5.53823 17.7284 7.49188
647 1 5.50812 15.6951 9.50766
648 1 3.48083 17.7836 9.54723
649 1 7.53528 15.7029 7.47273
650 1 9.48605 17.7184 7.50389
651 1 9.50952 15.6859 9.55655
652 1 7.50051 17.7613 9.53784
653 1 11.4769 15.6905 7.46239
654 1 13.5493 17.7288 7.51737
655 1 13.5815 15.7082 9.54682
656 1 11.5319 17.7502 9.55488
657 1 15.6615 15.6917 7.47175
658 1 17.771 17.717 7.46301
659 1 17.7084 15.684 9.50774
660 1 15.6696 17.7827 9.55736
661 1 19.7825 15.6678 7.45459
662 1 21.7548 17.7001 7.46729
663 1 21.7938 15.719 9.46788
664 1 19.7462 17.7526 9.5096
665 1 23.8052 15.6141 7.45906
666 1 25.8048 17.7152 7.47763
667 1 25.865 15.6778 9.46562
668 1 23.8041 17.7059 9.46806
669 1 27.8136 15.6549 7.51814
670 1 29.8262 17.7253 7.51858
671 1 29.8115 15.6703 9.53016
672 1 27.8416 17.7027 9.47727
673 1 31.8653 19.7629 7.57102
674 1 1.47713 21.744 7.55924
675 1 1.44175 19.7924 9.57598
676 1 31.8884 21.7745 9.60204
677 1 3.51168 19.748 7.55777
678 1 5.48608 21.79 7.55407
679 1 5.47177 19.8067 9.5755
680 1 3.46799 21.7724 9.60667
681 1 7.48074 19.7531 7.52009
682 1 9.47655 21.7929 7.55152
683 1 9.48805 19.8126 9.54487
684 1 7.45835 21.7973 9.57894
685 1 11.5389 19.7274 7.49342
686 1 13.6374 21.7786 7.54992
687 1 13.6457 19.7914 9.53328
688 1 11.5612 21.7964 9.56834
689 1 15.6707 19.7978 7.49752
690 1 17.7109 21.813 7.4751
691 1 17.6979 19.8111 9.51206
692 1 15.6688 21.7717 9.50508
693 1 19.7348 19.7857 7.46466
694 1 21.7608 21.8123 7.48496
695 1 21.7581 19.7812 9.48036
696 1 19.7366 21.7705 9.47865
697 1 23.8074 19.778 7.46914
698 1 25.8148 21.7739 7.48056
699 1 25.8398 19.7735 9.47747
700 1 23.7692 21.7837 9.47088
701 1 27.8249 19.7552 7.51809
702 1 29.859 21.7836 7.52919
703 1 29.8515 19.7497 9.5502
704 1 27.8721 21.7628 9.51711
705 1 31.8756 23.7672 7.56767
706 1 1.48644 25.8129 7.51189
707 1 1.46711 23.7873 9.60478
708 1 31.9036 25.8144 9.61506
709 1 3.48939 23.7965 7.54708
710 1 5.42983 25.8228 7.55829
711 1 5.42646 23.8207 9.59153
712 1 3.4471 25.8242 9.59166
713 1 7.43717 23.796 7.5543
714 1 9.49886 25.8353 7.55452
715 1 9.49957 23.8156 9.55533
716 1 7.43298 25.8224 9.59244
717 1 11.5639 23.8157 7.50934
718 1 13.6323 25.8023 7.56762
719 1 13.6388 23.7901 9.51165
720 1 11.5751 25.8189 9.52255
721 1 15.692 23.761 7.49052
722 1 17.7083 25.7477 7.49724
723 1 17.6939 23.7714 9.50787
724 1 15.6705 25.7741 9.47059
725 1 19.7181 23.7436 7.46753
726 1 21.7735 25.7655 7.47934
727 1 21.7534 23.7627 9.49837
728 1 19.7245 25.7644 9.49496
729 1 23.8102 23.7831 7.48631
730 1 25.8207 25.7681 7.49369
731 1 25.8504 23.7504 9.55118
732 1 23.8354 25.7788 9.52494
733 1 27.862 23.7731 7.54436
734 1 29.8651 25.7724 7.50653
735 1 29.8551 23.7903 9.54028
736 1 27.8118 25.7696 9.57998
737 1 31.8773 27.8478 7.54128
738 1 1.44052 29.8495 7.52733
739 1 1.42531 27.8279 9.61056
740 1 31.8651 29.8326 9.5754
741 1 3.47292 27.8056 7.51907
742 1 5.42175 29.8138 7.51096
743 1 5.39527 27.778 9.59621
744 1 3.39698 29.7937 9.58351
745 1 7.40328 27.8582 7.55468
746 1 9.53904 29.7783 7.54196
747 1 9.52304 27.7889 9.53441
748 1 7.46086 29.769 9.57647
749 1 11.6027 27.8219 7.5203
750 1 13.6352 29.8367 7.55565
751 1 13.6178 27.7967 9.51194
752 1 11.5935 29.781 9.5134
753 1 15.6646 27.8359 7.48608
754 1 17.7148 29.9043 7.53007
755 1 17.7174 27.8084 9.51923
756 1 15.6553 29.8435 9.49658
757 1 19.7583 27.8313 7.51177
758 1 21.7991 29.9311 7.51681
759 1 21.7891 27.8396 9.54316
760 1 19.7716 29.901 9.5233
761 1 23.8198 27.8512 7.53521
762 1 25.8361 29.962 7.52818
763 1 25.8345 27.8592 9.56292
764 1 23.8376 29.9234 9.53499
765 1 27.8634 27.8609 7.53463
766 1 29.8245 29.9582 7.55301
767 1 29.8545 27.8245 9.55392
768 1 27.839 29.9286 9.56075
769 1 31.8261 31.8395 11.5429
770 1 1.3673 1.40946 11.549
771 1 1.39296 31.8088 13.5634
772 1 31.8455 1.40526 13.5425
773 1 3.39223 31.7989 11.543
774 1 5.42858 1.40502 11.5525
775 1 5.36633 31.817 13.5666
776 1 3.3857 1.40177 13.5709
777 1 7.46297 31.7909 11.5272
778 1 9.51899 1.4198 11.5183
779 1 9.53798 31.8427 13.4889
780 1 7.43717 1.4111 13.5803
781 1 11.5756 31.8354 11.5276
782 1 13.6628 1.45815 11.509
783 1 13.6575 31.8803 13.49
784 1 11.5947 1.44019 13.5453
785 1 15.7216 31.8993 11.5589
786 1 17.771 1.46909 11.5382
787 1 17.7607 31.9145 13.489
788 1 15.7134 1.46247 13.5022
789 1 19.7806 31.9511 11.5412
790 1 21.8179 1.48495 11.4884
791 1 21.8214 31.9207 13.514
792 1 19.8017 1.47896 13.5169
793 1 23.8372 31.9323 11.5276
794 1 25.8448 1.47337 11.5015
795 1 25.8103 31.9194 13.5095
796 1 23.8436 1.47204 13.492
797 1 27.8419 31.9124 11.5056
798 1 29.8253 1.44336 11.529
799 1 29.8663 31.8424 13.555
800 1 27.827 1.43715 13.4986
801 1 31.7937 3.48457 11.5136
802 1 1.35871 5.53383 11.5734
803 1 1.41769 3.44867 13.5623
804 1 31.7855 5.49696 13.5406
805 1 3.40832 3.48585 11.5447
806 1 5.43515 5.53343 11.5178
807 1 5.41384 3.48827 13.57
808 1 3.41323 5.52995 13.6063
809 1 7.46905 3.46906 11.5503
810 1 9.55246 5.52634 11.543
811 1 9.52108 3.50872 13.5817
812 1 7.47826 5.56565 13.6067
813 1 11.6057 3.50498 11.5244
814 1 13.6426 5.52076 11.5994
815 1 13.693 3.53525 13.5405
816 1 11.6218 5.57119 13.5994
817 1 15.7219 3.48189 11.5429
818 1 17.7622 5.47824 11.5313
819 1 17.7632 3.50542 13.5369
820 1 15.6986 5.54946 13.5658
821 1 19.7997 3.46259 11.5452
822 1 21.8371 5.45638 11.4975
823 1 21.8222 3.48484 13.5203
824 1 19.7801 5.53554 13.5146
825 1 23.8419 3.46444 11.5116
826 1 25.8421 5.44754 11.4982
827 1 25.8273 3.43902 13.507
828 1 23.853 5.48908 13.4996
829 1 27.8184 3.43278 11.481
830 1 29.7789 5.47092 11.5392
831 1 29.8059 3.4488 13.525
832 1 27.8354 5.47279 13.5091
833 1 31.8022 7.529 11.5722
834 1 1.38174 9.57921 11.593
835 1 1.39358 7.55893 13.569
836 1 31.7808 9.61297 13.5925
837 1 3.38975 7.57263 11.5811
838 1 5.45028 9.56516 11.545
839 1 5.46847 7.54639 13.6017
840 1 3.40681 9.58363 13.5974
841 1 7.47705 7.59606 11.5794
842 1 9.52618 9.57078 11.5647
843 1 9.55195 7.5463 13.6226
844 1 7.52171 9.55737 13.6147
845 1 11.6069 7.54792 11.5575
846 1 13.6116 9.58049 11.5257
847 1 13.6552 7.54971 13.6087
848 1 11.563 9.54871 13.6293
849 1 15.6937 7.53391 11.572
850 1 17.7543 9.55993 11.5429
851 1 17.7241 7.50158 13.5619
852 1 15.6735 9.51777 13.6165
853 1 19.7836 7.5296 11.5718
854 1 21.8421 9.55176 11.5143
855 1 21.8255 7.49091 13.5514
856 1 19.7601 9.5004 13.5772
857 1 23.8806 7.50425 11.5239
858 1 25.8446 9.58688 11.5403
859 1 25.8477 7.52378 13.5578
860 1 23.9105 9.50268 13.5703
861 1 27.7951 7.51715 11.539
862 1 29.7769 9.59599 11.5798
863 1 29.7734 7.55114 13.5561
864 1 27.8273 9.61533 13.5542
865 1 31.8248 11.6137 11.5926
866 1 1.36364 13.6628 11.5819
867 1 1.38967 11.6199 13.5991
868 1 31.8039 13.6227 13.596
869 1 3.41579 11.5953 11.5645
870 1 5.51895 13.6863 11.5831
871 1 5.46142 11.6205 13.6195
872 1 3.42269 13.6448 13.6492
873 1 7.52443 11.6041 11.5432
874 1 9.52883 13.6872 11.5825
875 1 9.57706 11.615 13.6369
876 1 7.53891 13.6639 13.6357
877 1 11.5766 11.5798 11.5883
878 1 13.571 13.6348 11.5802
879 1 13.6042 11.5731 13.6391
880 1 11.5633 13.6267 13.658
881 1 15.6593 11.5656 11.6004
882 1 17.6926 13.6272 11.5242
883 1 17.6836 11.581 13.6213
884 1 15.6298 13.6546 13.6219
885 1 19.7567 11.582 11.5318
886 1 21.8428 13.6784 11.5071
887 1 21.8184 11.5924 13.5476
888 1 19.7496 13.6819 13.605
889 1 23.8591 11.6027 11.4974
890 1 25.8224 13.6137 11.5149
891 1 25.8724 11.5897 13.5374
892 1 23.8638 13.6387 13.5355
893 1 27.7947 11.6366 11.5271
894 1 29.817 13.6522 11.5751
895 1 29.7984 11.6045 13.5769
896 1 27.846 13.592 13.5371
897 1 31.7996 15.6896 11.5551
898 1 1.42552 17.7715 11.5871
899 1 1.38546 15.7284 13.5523
900 1 31.8615 17.7646 13.5912
901 1 3.44299 15.7489 11.5506
902 1 5.48122 17.7717 11.5867
903 1 5.46438 15.7242 13.6096
904 1 3.44144 17.7878 13.5961
905 1 7.52225 15.7271 11.5566
906 1 9.49842 17.7343 11.5796
907 1 9.54967 15.671 13.6135
908 1 7.46436 17.7627 13.6033
909 1 11.526 15.7351 11.5899
910 1 13.5991 17.7595 11.5959
911 1 13.6202 15.7109 13.6418
912 1 11.5869 17.7698 13.6017
913 1 15.6632 15.7207 11.5981
914 1 17.7374 17.7921 11.5782
915 1 17.6746 15.7413 13.639
916 1 15.6402 17.7622 13.613
917 1 19.7199 15.7663 11.593
918 1 21.7665 17.7442 11.5235
919 1 21.7763 15.6906 13.5785
920 1 19.7044 17.7565 13.6029
921 1 23.8516 15.6654 11.522
922 1 25.8552 17.7263 11.5214
923 1 25.8895 15.6649 13.5609
924 1 23.8472 17.6924 13.5436
925 1 27.8808 15.6342 11.5022
926 1 29.8527 17.7263 11.5578
927 1 29.8259 15.6459 13.5502
928 1 27.8516 17.7181 13.5538
929 1 31.8428 19.7935 11.5498
930 1 1.43067 21.7813 11.5881
931 1 1.4199 19.7765 13.5761
932 1 31.8905 21.814 13.5595
933 1 3.44299 19.7731 11.574
934 1 5.42973 21.8084 11.6212
935 1 5.44071 19.813 13.5893
936 1 3.43447 21.8171 13.5838
937 1 7.46218 19.7625 11.569
938 1 9.46654 21.8093 11.5552
939 1 9.51393 19.8202 13.5927
940 1 7.42938 21.824 13.5561
941 1 11.5505 19.7556 11.6061
942 1 13.6465 21.8167 11.5109
943 1 13.6403 19.7978 13.6097
944 1 11.5533 21.8051 13.541
945 1 15.6863 19.8002 11.536
946 1 17.679 21.7894 11.5624
947 1 17.6521 19.8105 13.5998
948 1 15.6982 21.7791 13.5971
949 1 19.7245 19.7606 11.5316
950 1 21.7634 21.766 11.5063
951 1 21.7575 19.781 13.5331
952 1 19.6805 21.762 13.6157
953 1 23.8113 19.7666 11.5219
954 1 25.8635 21.8019 11.5673
955 1 25.8942 19.7792 13.5757
956 1 23.8569 21.8061 13.6129
957 1 27.8947 19.7761 11.5174
958 1 29.8988 21.7791 11.5532
959 1 29.8655 19.7929 13.5283
960 1 27.8692 21.8184 13.5806
961 1 31.8978 23.7801 11.6056
962 1 1.46331 25.8157 11.6292
963 1 1.42508 23.8243 13.5819
964 1 31.8974 25.8109 13.5834
965 1 3.43052 23.806 11.6145
966 1 5.38485 25.7928 11.5732
967 1 5.39695 23.7983 13.5651
968 1 3.39995 25.7983 13.5824
969 1 7.4133 23.8087 11.5841
970 1 9.48171 25.7811 11.4956
971 1 9.49814 23.7663 13.5218
972 1 7.39587 25.791 13.5341
973 1 11.593 23.801 11.5522
974 1 13.6403 25.7536 11.4516
975 1 13.6276 23.753 13.5141
976 1 11.5652 25.7529 13.5244
977 1 15.6726 23.7646 11.5269
978 1 17.6886 25.7596 11.4951
979 1 17.6932 23.7382 13.5722
980 1 15.6786 25.7596 13.5763
981 1 19.6862 23.7393 11.562
982 1 21.8073 25.7795 11.5567
983 1 21.7543 23.7668 13.5968
984 1 19.7577 25.7337 13.5854
985 1 23.861 23.7921 11.5517
986 1 25.8275 25.7676 11.5781
987 1 25.8806 23.8025 13.572
988 1 23.8175 25.796 13.57
989 1 27.8376 23.7868 11.5578
990 1 29.8683 25.7968 11.6105
991 1 29.8937 23.8209 13.5919
992 1 27.8785 25.8304 13.5841
993 1 31.895 27.8207 11.5879
994 1 1.40955 29.7934 11.5836
995 1 1.42523 27.7894 13.586
996 1 31.9028 29.7892 13.5786
997 1 3.39829 27.7905 11.6242
998 1 5.41741 29.7711 11.5711
999 1 5.38619 27.7562 13.5524
1000 1 3.37228 29.7696 13.5934
1001 1 7.4136 27.7927 11.5834
1002 1 9.49426 29.796 11.4836
1003 1 9.48005 27.7512 13.5207
1004 1 7.39989 29.7693 13.5429
1005 1 11.5721 27.7749 11.5452
1006 1 13.627 29.8188 11.4359
1007 1 13.6403 27.7636 13.4942
1008 1 11.5812 29.7963 13.4997
1009 1 15.7008 27.7913 11.5429
1010 1 17.7265 29.8652 11.4948