ITEM: TIMESTEP
1000
ITEM: NUMBER OF ATOMS
501
ITEM: BOX BOUNDS pp pp pp
0.0000000000000000e+00 1.9629018200000001e+01
0.0000000000000000e+00 1.9629018200000001e+01
0.0000000000000000e+00 1.9629018200000001e+01
ITEM: ATOMS id type mass x y z 
1 1 106.42 19.6013 0.118375 19.5621 
2 1 106.42 1.87582 1.85392 19.5342 
3 1 106.42 1.9505 0.139789 2.08255 
4 1 106.42 0.0186567 2.21927 2.20837 
5 1 106.42 4.07052 0.064581 0.111124 
6 1 106.42 5.74211 2.12942 0.150145 
7 1 106.42 5.94242 0.204009 2.11713 
8 1 106.42 3.79403 2.0268 1.97039 
9 1 106.42 7.68653 19.6318 19.4438 
10 1 106.42 9.85936 1.89913 0.0828346 
11 1 106.42 9.69354 0.176769 1.9869 
12 1 106.42 7.7933 2.07172 2.03905 
13 1 106.42 11.6124 19.5459 19.4688 
14 1 106.42 13.8265 1.93443 0.0883998 
15 1 106.42 13.7245 19.4218 1.72925 
16 1 106.42 11.9751 1.82126 1.93414 
17 1 106.42 15.7618 19.5629 19.5644 
18 1 106.42 17.5121 2.05041 19.6458 
19 1 106.42 17.795 0.0821754 1.83751 
20 1 106.42 15.6106 1.83074 1.98433 
21 1 106.42 19.6074 3.79636 0.216351 
22 1 106.42 1.69681 5.97692 19.5414 
23 1 106.42 2.08849 4.08007 2.16643 
24 1 106.42 0.0981996 5.90954 1.91759 
25 1 106.42 3.79294 4.00764 0.0613949 
26 1 106.42 6.02055 6.04299 19.5654 
27 1 106.42 5.67578 4.19622 1.99659 
28 1 106.42 3.97349 6.07547 1.84983 
29 1 106.42 7.67335 3.81374 0.194293 
30 1 106.42 9.63367 5.83651 19.4884 
31 1 106.42 9.81301 3.93644 1.85819 
32 1 106.42 8.00795 5.89625 2.17437 
33 1 106.42 11.8503 3.77583 -0.0105202 
34 1 106.42 13.8194 5.96237 0.0448901 
35 1 106.42 13.9129 3.9018 2.01874 
36 1 106.42 11.7471 5.81774 1.59809 
37 1 106.42 15.7807 3.99187 19.5838 
38 1 106.42 17.712 5.81684 0.0374976 
39 1 106.42 17.6788 4.01329 2.11437 
40 1 106.42 15.8246 5.95442 2.1245 
41 1 106.42 19.4686 8.01404 19.417 
42 1 106.42 2.07621 9.94477 0.0058015 
43 1 106.42 2.05911 7.80799 1.78303 
44 1 106.42 0.232597 9.87154 2.00282 
45 1 106.42 3.87786 7.7558 19.3954 
46 1 106.42 5.7567 9.65482 0.116876 
47 1 106.42 5.93759 7.86072 2.0584 
48 1 106.42 3.84532 9.85459 1.94422 
49 1 106.42 7.83549 7.8842 0.219665 
50 1 106.42 9.71958 9.7577 19.4302 
51 1 106.42 9.99921 7.75407 1.78847 
52 1 106.42 8.12635 9.79379 2.09504 
53 1 106.42 11.8657 8.01874 19.5056 
54 1 106.42 13.9545 9.7438 0.147099 
55 1 106.42 13.8302 7.76278 2.11739 
56 1 106.42 11.765 9.90993 1.86252 
57 1 106.42 15.7948 7.9946 19.6486 
58 1 106.42 17.665 9.8221 19.589 
59 1 106.42 17.5526 7.92184 1.83771 
60 1 106.42 15.6903 9.93682 2.09089 
61 1 106.42 0.107961 11.8746 0.0577904 
62 1 106.42 2.01409 13.625 19.5285 
63 1 106.42 1.99327 11.9904 1.97521 
64 1 106.42 0.0223612 13.7886 2.03577 
65 1 106.42 4.18023 11.7068 0.0592396 
66 1 106.42 5.94413 13.738 0.0444386 
67 1 106.42 6.05872 11.6912 2.25237 
68 1 106.42 4.1636 13.5223 1.92564 
69 1 106.42 7.67432 11.6511 0.130614 
70 1 106.42 10.0889 13.6831 19.5667 
71 1 106.42 9.7138 11.7841 1.89452 
72 1 106.42 7.88288 13.6501 2.03813 
73 1 106.42 11.7979 11.7079 19.559 
74 1 106.42 13.5788 13.861 0.0328869 
75 1 106.42 13.7807 11.7902 1.76052 
76 1 106.42 11.7409 13.6595 2.07935 
77 1 106.42 15.9031 11.8016 19.5906 
78 1 106.42 17.8003 13.6779 19.5785 
79 1 106.42 17.8753 11.7399 2.11922 
80 1 106.42 15.7579 13.6132 1.87275 
81 1 106.42 19.5774 15.6157 0.128609 
82 1 106.42 1.96735 17.807 0.0436833 
83 1 106.42 1.91815 15.8104 1.81723 
84 1 106.42 0.21334 17.7667 2.13546 
85 1 106.42 3.73817 15.4724 0.0673778 
86 1 106.42 5.74967 17.3785 19.6434 
87 1 106.42 5.947 15.5764 1.92645 
88 1 106.42 4.00096 17.8302 2.07795 
89 1 106.42 7.90023 15.5575 19.4434 
90 1 106.42 9.77796 17.5903 19.6023 
91 1 106.42 9.52906 15.7046 1.92329 
92 1 106.42 7.82256 17.7715 1.71167 
93 1 106.42 11.7337 15.7638 0.238186 
94 1 106.42 13.8652 17.4643 19.5086 
95 1 106.42 13.616 15.5615 2.07643 
96 1 106.42 11.6977 17.6832 1.92947 
97 1 106.42 15.8159 15.4936 19.4752 
98 1 106.42 17.7707 17.7478 0.0446683 
99 1 106.42 17.6539 15.8852 1.9867 
100 1 106.42 15.6473 17.7233 1.97954 
101 1 106.42 0.0430432 0.0998391 3.92119 
102 1 106.42 1.82578 2.11147 4.14687 
103 1 106.42 1.7092 19.5036 5.91809 
104 1 106.42 0.00249793 1.90779 6.02503 
105 1 106.42 3.87268 0.17285 4.09605 
106 1 106.42 5.95777 1.83261 4.08277 
107 1 106.42 6.07075 19.3642 5.79179 
108 1 106.42 3.93043 1.86568 5.99118 
109 1 106.42 7.93139 19.3411 3.80151 
110 1 106.42 9.9429 2.10688 3.86795 
111 1 106.42 9.55082 0.0930423 5.83264 
112 1 106.42 7.81008 1.90212 5.76175 
113 1 106.42 11.804 19.5284 3.76957 
114 1 106.42 13.6774 1.81158 3.9768 
115 1 106.42 13.6464 19.4204 5.83818 
116 1 106.42 11.7137 1.73509 5.80856 
117 1 106.42 15.764 0.0298913 3.95575 
118 1 106.42 17.6087 1.89666 3.86963 
119 1 106.42 17.7252 0.140274 5.96255 
120 1 106.42 15.6531 1.9094 5.90024 
121 1 106.42 19.5389 4.08192 4.06426 
122 1 106.42 2.18824 5.90172 4.02373 
123 1 106.42 2.03556 3.81407 6.12171 
124 1 106.42 0.180649 5.88553 5.84457 
125 1 106.42 4.05065 3.78765 4.02116 
126 1 106.42 5.9215 5.96171 3.88542 
127 1 106.42 5.73064 3.9745 5.94866 
128 1 106.42 3.87065 6.00337 5.85604 
129 1 106.42 7.78919 3.8796 3.91114 
130 1 106.42 10.0409 5.66407 3.86823 
131 1 106.42 9.99039 3.88729 5.9879 
132 1 106.42 7.84436 5.67301 6.04452 
133 1 106.42 11.8655 3.87144 3.76637 
134 1 106.42 13.5971 5.84932 3.89224 
135 1 106.42 13.809 3.82853 5.76739 
136 1 106.42 11.8492 5.94728 5.8965 
137 1 106.42 15.8459 3.92446 3.95229 
138 1 106.42 17.7708 6.04878 4.0688 
139 1 106.42 17.8129 3.78471 6.10302 
140 1 106.42 15.6729 5.80973 5.76603 
141 1 106.42 0.137874 7.84083 3.78802 
142 1 106.42 2.04582 9.90292 3.87262 
143 1 106.42 1.75714 8.08868 5.84195 
144 1 106.42 19.6316 9.93212 5.91934 
145 1 106.42 3.92902 8.01641 4.07732 
146 1 106.42 6.00378 9.61136 3.94093 
147 1 106.42 6.22014 7.74526 5.9445 
148 1 106.42 4.01672 9.62324 6.04545 
149 1 106.42 8.04771 7.86117 3.9334 
150 1 106.42 9.8716 9.78662 4.01695 
151 1 106.42 9.70343 7.5396 5.87031 
152 1 106.42 7.90159 9.60253 6.15127 
153 1 106.42 11.6938 7.86311 3.97485 
154 1 106.42 13.6293 9.87602 3.95482 
155 1 106.42 13.8652 7.83106 6.02609 
156 1 106.42 11.736 9.93925 5.74857 
157 1 106.42 15.7703 7.89065 4.06419 
158 1 106.42 17.7758 9.59229 3.78813 
159 1 106.42 17.882 7.9307 5.89856 
160 1 106.42 15.6635 9.8094 5.91813 
161 1 106.42 0.0842807 11.7556 3.96245 
162 1 106.42 2.0686 13.8787 3.72446 
163 1 106.42 2.23493 11.7525 5.7178 
164 1 106.42 0.211615 13.6267 5.65737 
501 2 1.01 19.1401 14.7426 6.95498 
165 1 106.42 4.05264 11.685 3.84416 
166 1 106.42 5.93995 13.7752 4.16896 
167 1 106.42 5.84787 11.5453 5.82285 
168 1 106.42 4.07236 13.5442 6.05565 
169 1 106.42 7.86279 11.677 4.19766 
170 1 106.42 9.74235 13.7996 3.99842 
171 1 106.42 9.5954 11.7721 6.00098 
172 1 106.42 7.91164 13.9169 6.14374 
173 1 106.42 11.6306 11.7809 3.73288 
174 1 106.42 13.8844 13.5204 3.91442 
175 1 106.42 13.7624 11.8751 5.79915 
176 1 106.42 11.6827 13.4816 5.85056 
177 1 106.42 15.8511 11.7061 3.95248 
178 1 106.42 17.6305 13.7927 3.79454 
179 1 106.42 17.7417 11.6788 5.79565 
180 1 106.42 15.9046 13.7954 5.71683 
181 1 106.42 19.6055 15.7373 3.8691 
182 1 106.42 2.06937 17.4717 3.93662 
183 1 106.42 1.90115 15.6083 5.88699 
184 1 106.42 19.3859 17.6709 5.72571 
185 1 106.42 3.83805 15.4797 3.73213 
186 1 106.42 5.78202 17.4865 3.81179 
187 1 106.42 5.49555 15.7831 5.84759 
188 1 106.42 3.77574 17.7033 5.76779 
189 1 106.42 7.80663 15.6652 4.00365 
190 1 106.42 10.0146 17.5927 3.96813 
191 1 106.42 9.97851 15.5932 6.20371 
192 1 106.42 7.83541 17.4466 5.80761 
193 1 106.42 11.6955 15.5921 4.0871 
194 1 106.42 13.578 17.5428 3.9361 
195 1 106.42 13.6698 15.4709 5.81454 
196 1 106.42 11.7303 17.7871 6.09956 
197 1 106.42 15.5927 15.8664 3.96437 
198 1 106.42 17.7767 17.9148 3.71985 
199 1 106.42 17.7753 15.6992 5.77966 
200 1 106.42 15.8452 17.764 5.72842 
201 1 106.42 19.637 19.5996 7.91143 
202 1 106.42 2.07753 1.92707 7.95331 
203 1 106.42 1.92143 0.15941 9.91344 
204 1 106.42 19.4637 1.92059 9.77317 
205 1 106.42 3.75435 19.4295 7.73818 
206 1 106.42 5.92625 2.10173 7.93546 
207 1 106.42 5.76784 0.233332 9.65866 
208 1 106.42 3.88932 2.04054 9.81072 
209 1 106.42 7.69301 0.0929348 7.92713 
210 1 106.42 9.68812 1.96718 7.95049 
211 1 106.42 9.64724 19.4274 9.59995 
212 1 106.42 8.10626 1.96754 10.1838 
213 1 106.42 11.7314 0.0961743 7.90531 
214 1 106.42 13.6903 1.98688 7.70721 
215 1 106.42 13.7475 0.160094 9.77249 
216 1 106.42 11.6053 1.91508 9.76324 
217 1 106.42 15.5921 19.5933 7.67132 
218 1 106.42 17.4904 1.84286 7.94501 
219 1 106.42 17.5323 19.5876 9.81997 
220 1 106.42 15.6747 1.79723 9.94206 
221 1 106.42 19.5882 3.84703 8.01893 
222 1 106.42 1.70993 5.98962 7.73893 
223 1 106.42 1.92328 3.90411 9.75867 
224 1 106.42 0.0961331 5.63619 9.90541 
225 1 106.42 3.96504 4.15708 7.91736 
226 1 106.42 5.81415 5.99252 7.8544 
227 1 106.42 5.94504 3.97411 9.82295 
228 1 106.42 3.95135 5.88289 9.89039 
229 1 106.42 7.7789 3.76972 7.68845 
230 1 106.42 9.7228 5.90238 8.04666 
231 1 106.42 9.74384 3.95365 9.77618 
232 1 106.42 8.07048 5.82081 10.0371 
233 1 106.42 11.7324 4.00655 7.8553 
234 1 106.42 13.6504 5.83126 7.90946 
235 1 106.42 13.7356 3.64094 9.76357 
236 1 106.42 11.9514 5.73907 9.84552 
237 1 106.42 15.5902 4.05046 7.91973 
238 1 106.42 17.8014 5.95598 7.68268 
239 1 106.42 17.467 3.9184 9.77391 
240 1 106.42 15.6264 5.9977 9.87762 
241 1 106.42 19.5586 8.06582 8.04527 
242 1 106.42 1.73654 9.9823 7.98306 
243 1 106.42 2.05648 7.77192 9.63887 
244 1 106.42 19.4143 9.88549 10.1463 
245 1 106.42 3.71704 7.77136 7.73638 
246 1 106.42 5.66596 9.57611 8.02468 
247 1 106.42 5.99852 7.58648 9.77346 
248 1 106.42 3.94321 9.5554 9.90839 
249 1 106.42 8.07207 7.82505 8.09256 
250 1 106.42 10.0017 9.90405 7.83528 
251 1 106.42 10.0088 8.0582 9.852 
252 1 106.42 7.87121 9.77988 9.66339 
253 1 106.42 11.7423 7.66044 7.98322 
254 1 106.42 13.667 9.93742 7.89964 
255 1 106.42 14.0356 7.98761 9.82981 
256 1 106.42 11.9737 9.82937 9.78482 
257 1 106.42 15.8476 7.76381 7.88022 
258 1 106.42 17.637 9.9667 7.95305 
259 1 106.42 17.7554 7.86718 9.84561 
260 1 106.42 15.7887 10.0093 9.75974 
261 1 106.42 19.5854 11.9461 7.93991 
262 1 106.42 1.94139 13.7022 7.99301 
263 1 106.42 2.08372 11.7726 10.0025 
264 1 106.42 0.180143 13.8635 9.85432 
265 1 106.42 3.74433 11.68 7.87299 
266 1 106.42 5.80884 13.8311 8.01273 
267 1 106.42 5.70373 11.6518 9.59922 
268 1 106.42 3.84946 13.741 9.97557 
269 1 106.42 7.64931 11.7932 7.9267 
270 1 106.42 9.86917 13.5092 8.02787 
271 1 106.42 9.8631 11.6831 9.86596 
272 1 106.42 7.89747 13.6825 9.96394 
273 1 106.42 11.9713 11.8963 7.67797 
274 1 106.42 13.8774 13.9623 8.08381 
275 1 106.42 13.7918 12.0265 9.77901 
276 1 106.42 11.7026 13.7666 9.84582 
277 1 106.42 15.5942 11.907 7.52302 
278 1 106.42 17.6237 13.963 7.7112 
279 1 106.42 17.6329 11.9544 9.64589 
280 1 106.42 15.8069 13.6766 9.84302 
281 1 106.42 -0.00217391 15.8645 7.85759 
282 1 106.42 1.84302 17.6852 7.76482 
283 1 106.42 2.07989 15.8959 9.83093 
284 1 106.42 0.125064 17.789 9.96547 
285 1 106.42 3.7189 15.6196 7.73146 
286 1 106.42 5.84537 17.4931 7.74265 
287 1 106.42 5.77444 15.7022 9.83961 
288 1 106.42 4.03784 17.6782 9.63683 
289 1 106.42 7.71489 15.6635 7.90995 
290 1 106.42 9.66041 17.6691 7.66038 
291 1 106.42 9.6626 15.659 9.77511 
292 1 106.42 7.71689 17.5961 9.69796 
293 1 106.42 11.9795 15.5791 7.86565 
294 1 106.42 13.7441 17.7221 7.93371 
295 1 106.42 14.0142 15.8743 9.93747 
296 1 106.42 11.7265 17.6925 9.5913 
297 1 106.42 15.5911 15.8269 7.66984 
298 1 106.42 17.7252 17.6385 7.80189 
299 1 106.42 17.727 15.6504 9.77184 
300 1 106.42 15.8984 17.6964 9.56523 
301 1 106.42 0.0244752 0.106014 11.7647 
302 1 106.42 1.69211 2.19593 11.8177 
303 1 106.42 1.80729 19.5707 13.7379 
304 1 106.42 0.183241 1.92251 13.957 
305 1 106.42 3.80641 19.5649 11.7425 
306 1 106.42 5.80193 1.86217 11.7693 
307 1 106.42 5.87389 19.5188 13.819 
308 1 106.42 3.83025 1.81426 13.5354 
309 1 106.42 7.83717 -0.0225017 11.864 
310 1 106.42 10.0415 2.10201 11.8407 
311 1 106.42 9.95784 0.0656552 13.6075 
312 1 106.42 7.87071 2.09057 13.5286 
313 1 106.42 11.8394 0.100879 11.578 
314 1 106.42 13.8342 2.03831 11.8789 
315 1 106.42 13.5903 0.167542 13.7361 
316 1 106.42 11.7722 1.96951 14.0506 
317 1 106.42 15.4414 19.234 11.7139 
318 1 106.42 17.6929 1.91221 11.7447 
319 1 106.42 17.5739 19.5766 13.6378 
320 1 106.42 15.806 1.78983 13.6005 
321 1 106.42 19.3709 4.00962 12.0074 
322 1 106.42 1.94737 5.96605 11.6667 
323 1 106.42 1.88473 4.16065 13.7463 
324 1 106.42 -0.0510601 5.90779 13.8937 
325 1 106.42 3.74286 3.98234 11.7133 
326 1 106.42 5.96152 5.85026 11.8852 
327 1 106.42 5.60726 4.01603 13.8831 
328 1 106.42 3.89173 5.98168 13.83 
329 1 106.42 7.63928 4.03075 11.964 
330 1 106.42 9.9922 5.85693 11.7617 
331 1 106.42 9.76449 3.96513 13.6926 
332 1 106.42 7.67661 5.99144 13.7678 
333 1 106.42 11.936 3.93894 11.8019 
334 1 106.42 13.7481 5.96019 11.7675 
335 1 106.42 13.6795 3.80326 13.8929 
336 1 106.42 11.7304 5.78507 13.8489 
337 1 106.42 15.4955 4.037 11.7037 
338 1 106.42 17.7047 6.02832 11.563 
339 1 106.42 17.3974 3.95707 13.5187 
340 1 106.42 15.682 5.88274 13.5276 
341 1 106.42 0.0721578 7.86998 11.7358 
342 1 106.42 2.11255 9.62831 11.7404 
343 1 106.42 1.94688 7.72767 13.7302 
344 1 106.42 0.0848842 9.68156 13.7788 
345 1 106.42 4.16284 7.63091 11.8706 
346 1 106.42 6.01832 9.6878 11.7116 
347 1 106.42 6.0189 7.91867 13.8306 
348 1 106.42 4.04481 9.7189 13.6535 
349 1 106.42 7.86985 7.87468 11.6178 
350 1 106.42 9.94315 9.68439 11.8026 
351 1 106.42 9.76666 7.79465 13.4796 
352 1 106.42 8.01639 9.62976 13.6967 
353 1 106.42 11.9308 7.72933 11.669 
354 1 106.42 13.9039 9.77422 11.776 
355 1 106.42 13.6444 7.86387 13.7205 
356 1 106.42 11.7709 10.0445 13.7329 
357 1 106.42 15.8101 7.97303 11.8662 
358 1 106.42 17.6532 10.0704 12.0249 
359 1 106.42 17.7134 7.86748 13.6251 
360 1 106.42 15.6707 9.7725 13.9034 
361 1 106.42 19.586 11.8569 11.6768 
362 1 106.42 2.06405 13.6526 11.9772 
363 1 106.42 1.72824 11.7535 13.6891 
364 1 106.42 19.508 13.7021 13.6767 
365 1 106.42 4.1754 11.5985 11.7259 
366 1 106.42 5.93473 13.8235 11.6915 
367 1 106.42 6.05818 11.7733 13.518 
368 1 106.42 4.12103 13.8034 13.7431 
369 1 106.42 7.94016 11.5651 11.6124 
370 1 106.42 9.74563 13.8993 11.8642 
371 1 106.42 9.7406 11.8086 13.7326 
372 1 106.42 7.95629 13.8609 13.7345 
373 1 106.42 11.7103 11.6843 11.6324 
374 1 106.42 13.7297 13.6418 11.7648 
375 1 106.42 13.8438 11.5983 13.7342 
376 1 106.42 11.6465 13.5608 13.6902 
377 1 106.42 15.7837 11.8202 11.8364 
378 1 106.42 17.7097 13.8967 11.6904 
379 1 106.42 17.5609 12.0987 13.9393 
380 1 106.42 15.6706 13.9143 13.6705 
381 1 106.42 0.163796 15.6506 11.7573 
382 1 106.42 2.06206 17.528 11.7491 
383 1 106.42 2.04296 15.5919 13.7917 
384 1 106.42 0.0651677 17.6713 13.7005 
385 1 106.42 3.98959 15.7754 11.8586 
386 1 106.42 5.76751 17.8088 11.6712 
387 1 106.42 6.02671 15.7413 13.6584 
388 1 106.42 3.7738 17.778 13.8164 
389 1 106.42 7.83354 15.9812 11.7755 
390 1 106.42 9.787 17.8354 11.6113 
391 1 106.42 9.87897 15.6492 13.7552 
392 1 106.42 7.81962 17.5829 13.8928 
393 1 106.42 11.6118 15.8089 11.4257 
394 1 106.42 13.4587 17.6685 11.7671 
395 1 106.42 13.4587 15.5232 13.5465 
396 1 106.42 11.6863 17.5438 13.547 
397 1 106.42 15.7148 15.9151 11.9063 
398 1 106.42 17.7791 17.6102 11.632 
399 1 106.42 17.7893 15.7475 13.8816 
400 1 106.42 15.4553 17.6936 13.7806 
401 1 106.42 0.0557419 19.5809 16.0325 
402 1 106.42 2.10511 2.07763 15.842 
403 1 106.42 2.06961 0.139076 17.7634 
404 1 106.42 19.5522 2.19402 17.8107 
405 1 106.42 3.88226 19.6059 15.8599 
406 1 106.42 5.90769 1.77045 15.6051 
407 1 106.42 5.88949 19.5482 17.7381 
408 1 106.42 4.2189 1.96181 17.6806 
409 1 106.42 7.86503 0.118844 15.6023 
410 1 106.42 9.64766 2.11715 15.6795 
411 1 106.42 9.84631 19.4422 17.3865 
412 1 106.42 7.92936 2.01383 17.6528 
413 1 106.42 11.783 19.3011 15.5215 
414 1 106.42 14.0278 2.20861 15.7687 
415 1 106.42 13.5751 0.0209087 17.6955 
416 1 106.42 11.8193 1.92287 17.4014 
417 1 106.42 15.5033 19.625 15.7461 
418 1 106.42 17.7986 2.09406 15.5766 
419 1 106.42 17.6845 0.160328 17.5326 
420 1 106.42 15.6272 1.87124 17.7092 
421 1 106.42 0.130042 3.90715 15.8272 
422 1 106.42 2.09295 5.92093 15.806 
423 1 106.42 2.01774 4.04537 17.7259 
424 1 106.42 -0.00314819 5.97091 17.5296 
425 1 106.42 4.11112 3.76657 15.8026 
426 1 106.42 5.73325 6.08363 15.9393 
427 1 106.42 5.88718 4.02364 17.8217 
428 1 106.42 3.86806 5.89055 17.7707 
429 1 106.42 7.52582 3.92705 15.6934 
430 1 106.42 9.51935 5.88945 15.4775 
431 1 106.42 9.83389 3.93557 17.6411 
432 1 106.42 7.84279 5.78106 17.7216 
433 1 106.42 11.6545 4.01443 15.6845 
434 1 106.42 13.9428 6.02919 15.5757 
435 1 106.42 13.7164 3.99999 17.6937 
436 1 106.42 11.6514 5.85646 17.5814 
437 1 106.42 15.7773 4.09056 15.9293 
438 1 106.42 17.5624 5.81132 15.4751 
439 1 106.42 17.6321 3.92676 17.6644 
440 1 106.42 15.5751 6.05032 17.7628 
441 1 106.42 19.3488 7.8093 15.6554 
442 1 106.42 1.98988 9.81536 15.4359 
443 1 106.42 1.87283 8.09456 17.4875 
444 1 106.42 19.5213 9.78347 17.4376 
445 1 106.42 3.8978 7.88169 15.7053 
446 1 106.42 5.9315 9.80056 15.6929 
447 1 106.42 5.89092 8.09047 17.7195 
448 1 106.42 3.82733 9.88546 17.4265 
449 1 106.42 7.83184 7.75095 15.8453 
450 1 106.42 9.92846 9.89221 15.6943 
451 1 106.42 9.7828 7.93261 17.6006 
452 1 106.42 7.74084 9.82709 17.6094 
453 1 106.42 11.5382 7.7034 15.6107 
454 1 106.42 13.4791 9.75046 15.8133 
455 1 106.42 13.7309 7.93627 17.6971 
456 1 106.42 11.8392 9.98301 17.7035 
457 1 106.42 15.7992 7.88974 15.6508 
458 1 106.42 17.6129 9.99819 15.5862 
459 1 106.42 17.54 7.65963 17.5824 
460 1 106.42 15.6279 9.91491 17.5596 
461 1 106.42 19.5902 11.9547 15.8489 
462 1 106.42 1.92998 13.5945 15.7814 
463 1 106.42 1.86842 11.6138 17.7021 
464 1 106.42 19.5245 13.9607 17.6656 
465 1 106.42 3.81946 11.8173 15.4433 
466 1 106.42 5.97838 13.8852 15.6393 
467 1 106.42 5.71462 11.8371 17.5229 
468 1 106.42 3.81717 13.524 17.6417 
469 1 106.42 7.80025 11.6638 15.4248 
470 1 106.42 9.95819 13.593 16.0231 
471 1 106.42 9.5038 11.7367 17.7073 
472 1 106.42 7.70577 13.5109 17.7226 
473 1 106.42 11.8408 11.9598 15.8314 
474 1 106.42 13.7599 13.8463 15.4425 
475 1 106.42 13.7555 11.942 17.6946 
476 1 106.42 11.8588 13.8921 17.6721 
477 1 106.42 15.5994 11.8417 15.7004 
478 1 106.42 17.5963 13.8433 15.8109 
479 1 106.42 17.7857 11.6957 17.7694 
480 1 106.42 15.5981 13.7124 17.5668 
481 1 106.42 0.207035 15.7105 15.6063 
482 1 106.42 2.0119 17.7185 15.912 
483 1 106.42 2.17876 15.5655 17.463 
484 1 106.42 19.6705 17.4311 17.8961 
485 1 106.42 4.07149 15.8207 15.5494 
486 1 106.42 5.84404 17.6629 15.7352 
487 1 106.42 5.67954 15.5236 17.7418 
488 1 106.42 3.92079 17.6053 17.8376 
489 1 106.42 8.1023 15.3982 15.8806 
490 1 106.42 9.77233 17.5419 15.6089 
491 1 106.42 9.87189 15.6665 17.7231 
492 1 106.42 7.77732 17.568 17.4668 
493 1 106.42 11.7613 15.749 15.5913 
494 1 106.42 13.7763 17.5064 15.8565 
495 1 106.42 13.6111 15.6262 17.5001 
496 1 106.42 11.7937 17.4843 17.7723 
497 1 106.42 15.7595 15.7923 15.6936 
498 1 106.42 17.7394 17.8438 15.7122 
499 1 106.42 17.6299 15.8404 17.6011 
500 1 106.42 15.7447 17.7254 17.7123 
