ITEM: TIMESTEP
14700
ITEM: NUMBER OF ATOMS
501
ITEM: BOX BOUNDS pp pp pp
0.0000000000000000e+00 1.9629018200000001e+01
0.0000000000000000e+00 1.9629018200000001e+01
0.0000000000000000e+00 1.9629018200000001e+01
ITEM: ATOMS id type mass x y z 
4 1 106.42 19.557 1.95128 1.90062 
3 1 106.42 1.78395 0.345707 1.71322 
102 1 106.42 1.86769 2.05154 3.68122 
5 1 106.42 3.79946 0.096184 0.0364332 
8 1 106.42 4.20956 1.92978 2.1349 
25 1 106.42 3.87343 3.85161 19.5817 
27 1 106.42 5.96304 4.15272 2.34266 
6 1 106.42 5.9014 2.09826 0.244583 
29 1 106.42 7.66342 3.80433 0.355027 
9 1 106.42 7.67069 0.207178 0.161995 
12 1 106.42 7.88864 2.07909 2.25589 
31 1 106.42 9.88862 3.90828 1.71364 
10 1 106.42 9.78528 2.02538 0.16097 
11 1 106.42 9.76488 0.150265 1.99601 
16 1 106.42 11.809 1.64765 2.11639 
114 1 106.42 13.7361 1.99554 4.04948 
20 1 106.42 15.5991 1.5544 1.83914 
117 1 106.42 15.4944 19.373 3.865 
37 1 106.42 15.6923 3.69972 0.0384015 
133 1 106.42 11.6441 3.78203 3.78941 
18 1 106.42 17.7042 1.75788 0.0398521 
137 1 106.42 15.9567 3.70112 3.67678 
118 1 106.42 17.5812 1.77351 3.40224 
121 1 106.42 19.4512 3.68153 3.84038 
23 1 106.42 2.16719 4.07878 1.83759 
28 1 106.42 3.85043 6.11209 1.84808 
125 1 106.42 3.98745 4.08281 3.81248 
145 1 106.42 3.69154 7.59914 4.10625 
26 1 106.42 5.44936 6.02073 19.5913 
47 1 106.42 5.61182 7.70328 1.98754 
32 1 106.42 7.59466 6.02748 1.98412 
130 1 106.42 9.94432 5.58682 3.87066 
30 1 106.42 9.88665 5.90313 0.386313 
33 1 106.42 11.725 4.16012 0.105633 
36 1 106.42 11.9068 6.01547 1.80363 
35 1 106.42 13.6731 3.93309 1.75999 
34 1 106.42 14.1663 6.09574 0.186905 
134 1 106.42 13.6999 5.93235 3.66398 
39 1 106.42 17.4811 4.05154 1.8196 
24 1 106.42 19.4852 5.60084 1.89398 
40 1 106.42 15.8293 5.90639 1.80515 
138 1 106.42 17.9649 5.78994 3.94297 
43 1 106.42 1.90191 7.96975 1.82661 
44 1 106.42 0.148351 9.95514 1.99982 
141 1 106.42 0.334837 8.0186 3.61964 
48 1 106.42 4.00041 9.75171 2.07254 
67 1 106.42 6.04739 11.6486 2.14364 
46 1 106.42 6.10738 9.89892 -0.0828126 
65 1 106.42 3.95776 11.5509 0.0493535 
51 1 106.42 9.73327 7.76919 2.1904 
49 1 106.42 8.20927 7.84808 0.090169 
52 1 106.42 8.07759 9.50572 2.04892 
56 1 106.42 11.8406 9.42447 1.78353 
71 1 106.42 9.79229 11.0753 1.85281 
69 1 106.42 8.11296 11.4126 0.207268 
55 1 106.42 13.7819 8.23674 1.88825 
177 1 106.42 15.6462 11.759 4.07985 
154 1 106.42 13.6162 9.76997 3.97124 
59 1 106.42 17.9805 7.96405 1.98573 
60 1 106.42 16.1243 9.85617 2.08096 
158 1 106.42 17.5981 9.94072 4.0383 
79 1 106.42 17.8203 11.8887 2.14497 
57 1 106.42 15.8379 8.03297 0.2596 
63 1 106.42 2.08084 11.9346 1.99952 
62 1 106.42 2.23266 13.66 19.5805 
83 1 106.42 1.99857 15.5576 1.77692 
61 1 106.42 -0.0171476 12.0288 0.129695 
162 1 106.42 2.11555 13.7864 3.77419 
68 1 106.42 4.02099 13.517 2.07219 
72 1 106.42 7.58676 13.7438 2.01646 
166 1 106.42 5.99031 13.934 3.97787 
76 1 106.42 11.8158 13.8621 1.64393 
173 1 106.42 11.582 11.883 3.61404 
170 1 106.42 9.67876 13.6765 3.48556 
193 1 106.42 11.4395 15.4803 3.40886 
91 1 106.42 9.72557 15.6672 1.51305 
73 1 106.42 11.5916 11.7642 0.148387 
75 1 106.42 13.8492 11.821 1.85835 
95 1 106.42 13.98 15.7243 1.9558 
64 1 106.42 19.5405 14.0293 2.06762 
80 1 106.42 15.6709 13.9853 2.05219 
78 1 106.42 17.716 13.8486 0.0164416 
77 1 106.42 15.9105 11.8766 0.281315 
84 1 106.42 19.5857 17.53 1.93749 
182 1 106.42 1.91721 17.9291 3.66877 
82 1 106.42 1.98653 17.7249 0.24596 
7 1 106.42 5.95269 19.4386 2.23825 
189 1 106.42 7.87208 15.6896 3.97928 
87 1 106.42 5.78181 15.6829 1.76928 
88 1 106.42 4.05543 17.5587 1.94115 
92 1 106.42 7.78168 17.6821 1.83826 
185 1 106.42 3.9461 15.6768 3.75423 
96 1 106.42 11.7145 17.5453 1.82179 
190 1 106.42 9.64497 17.6972 3.75545 
13 1 106.42 11.7273 0.0680443 19.3028 
93 1 106.42 11.8218 15.6034 19.499 
15 1 106.42 13.4581 19.499 2.05336 
194 1 106.42 13.8647 17.4626 3.65108 
94 1 106.42 13.936 17.3374 0.123373 
19 1 106.42 17.6892 19.6311 1.99103 
100 1 106.42 15.7794 17.839 1.93716 
99 1 106.42 17.6412 15.9626 1.86933 
198 1 106.42 17.8201 17.9016 3.9479 
123 1 106.42 1.89568 3.74272 5.98591 
104 1 106.42 0.295649 1.82802 5.85733 
202 1 106.42 2.14899 1.9814 7.68517 
106 1 106.42 6.01937 2.02518 4.26235 
108 1 106.42 3.88809 2.06341 5.68353 
112 1 106.42 7.8615 1.63211 6.14935 
110 1 106.42 9.76541 1.97227 4.08958 
131 1 106.42 9.86628 3.74655 6.04653 
116 1 106.42 11.9075 1.96713 6.19728 
115 1 106.42 13.7034 0.114445 5.77752 
120 1 106.42 15.8696 1.83276 5.75825 
501 2 1.01 17.4359 1.63335 6.14388 
139 1 106.42 17.6043 3.63628 5.74933 
119 1 106.42 17.6545 0.0634792 5.8842 
122 1 106.42 1.82975 5.88638 4.02817 
128 1 106.42 3.92315 5.72693 5.97733 
222 1 106.42 1.73942 5.87896 7.81721 
245 1 106.42 3.68882 7.82818 7.84797 
126 1 106.42 5.82998 6.08234 4.11021 
127 1 106.42 5.91185 3.99426 6.19786 
147 1 106.42 5.77217 7.58839 6.13961 
129 1 106.42 7.87786 3.89418 4.25334 
132 1 106.42 8.11043 6.04069 6.00998 
149 1 106.42 7.95209 7.65596 4.13646 
151 1 106.42 9.96326 7.88775 6.24377 
136 1 106.42 11.628 5.67519 5.97225 
153 1 106.42 11.7278 7.76242 4.05218 
135 1 106.42 13.9198 4.18393 5.73531 
234 1 106.42 14.0039 5.80873 7.95749 
253 1 106.42 11.9798 7.47913 7.93324 
155 1 106.42 13.6807 7.58106 5.88613 
140 1 106.42 15.9239 5.88576 5.60685 
124 1 106.42 19.5245 6.0708 5.75633 
238 1 106.42 17.6412 5.98294 7.76172 
237 1 106.42 15.7009 3.96777 7.5079 
221 1 106.42 19.3912 4.02353 7.77252 
257 1 106.42 15.6949 7.79249 7.7273 
142 1 106.42 2.09632 10.0724 3.96172 
143 1 106.42 1.77741 7.96451 5.9714 
163 1 106.42 1.72056 11.8127 5.93026 
265 1 106.42 3.76965 11.8957 7.58596 
148 1 106.42 4.15446 9.69477 5.99806 
165 1 106.42 3.92098 11.6967 4.14503 
146 1 106.42 5.79795 9.52086 4.01394 
167 1 106.42 5.92055 11.6506 5.96584 
169 1 106.42 8.0709 11.6749 4.08984 
152 1 106.42 7.78706 9.498 5.99105 
150 1 106.42 9.90942 9.4092 4.21243 
249 1 106.42 8.16331 8.02795 7.94377 
171 1 106.42 9.7915 11.7171 5.90963 
157 1 106.42 15.4887 7.98138 3.60101 
156 1 106.42 11.6901 9.88924 5.80355 
254 1 106.42 13.8095 10.0266 7.84899 
159 1 106.42 17.7644 7.95163 5.82873 
144 1 106.42 19.5023 9.82235 5.74758 
160 1 106.42 15.5809 10.1968 6.06456 
161 1 106.42 0.00167022 11.9381 3.7712 
164 1 106.42 0.257232 13.8594 5.86661 
183 1 106.42 2.24276 15.6333 5.70507 
181 1 106.42 0.11368 15.8339 4.06857 
168 1 106.42 3.92175 13.4761 5.9208 
187 1 106.42 5.69155 15.6343 5.77212 
172 1 106.42 7.95145 13.583 5.80986 
191 1 106.42 10.0574 15.6816 5.6216 
270 1 106.42 9.994 13.7269 7.69034 
176 1 106.42 11.7236 13.8366 5.81559 
175 1 106.42 13.7474 11.8531 5.70365 
273 1 106.42 12.0037 11.8184 7.87831 
293 1 106.42 12.1822 15.7505 7.65417 
174 1 106.42 13.6958 13.9606 3.88455 
274 1 106.42 13.8049 13.6673 7.6964 
179 1 106.42 18.1714 11.8861 5.90552 
180 1 106.42 15.8985 13.8485 6.08555 
178 1 106.42 17.5481 13.5447 4.21824 
197 1 106.42 16.0426 15.7513 3.96687 
199 1 106.42 17.9689 15.7623 5.94044 
277 1 106.42 16.031 11.785 7.8364 
101 1 106.42 -0.0405495 0.0234672 4.17117 
103 1 106.42 2.24662 19.49 6.06521 
184 1 106.42 0.331017 17.6268 5.92736 
282 1 106.42 2.12084 17.444 7.82271 
188 1 106.42 4.0876 17.4962 6.0195 
186 1 106.42 5.93767 17.696 4.05459 
107 1 106.42 5.63565 19.3502 6.05683 
105 1 106.42 3.92415 19.4656 3.93265 
109 1 106.42 7.86128 0.0184861 3.99192 
192 1 106.42 7.71566 17.3872 5.94833 
286 1 106.42 5.83016 17.3283 7.85656 
111 1 106.42 9.89799 0.0540964 5.81593 
213 1 106.42 11.8254 19.6573 7.72769 
290 1 106.42 9.81543 17.3025 7.82936 
196 1 106.42 11.6361 17.69 5.6939 
113 1 106.42 11.74 19.3182 3.85776 
195 1 106.42 13.8879 15.7354 5.679 
294 1 106.42 13.742 17.7883 7.3561 
217 1 106.42 15.8983 19.5752 7.67461 
200 1 106.42 15.6365 17.8292 5.69245 
298 1 106.42 17.4834 17.5439 7.61007 
203 1 106.42 1.84548 0.516399 9.64074 
223 1 106.42 1.87023 3.72416 9.579 
302 1 106.42 2.01229 2.32561 11.7868 
305 1 106.42 3.67573 0.0851173 11.7136 
301 1 106.42 0.00237207 0.299826 11.8834 
208 1 106.42 4.00784 2.29009 9.99202 
206 1 106.42 5.57847 1.65219 7.81075 
227 1 106.42 6.09796 3.8696 9.48262 
329 1 106.42 7.8105 3.55272 11.4867 
210 1 106.42 10.0937 2.12539 8.0255 
212 1 106.42 7.87807 1.48398 9.81045 
231 1 106.42 9.89403 3.80418 10.0553 
229 1 106.42 8.06233 3.50459 7.87873 
233 1 106.42 12.1791 3.81594 8.03102 
214 1 106.42 14.2592 1.81787 7.82223 
216 1 106.42 12.0675 2.05465 9.9392 
235 1 106.42 14.4368 3.77863 9.86219 
314 1 106.42 13.7243 1.7497 11.6454 
218 1 106.42 18.175 1.65497 7.83885 
204 1 106.42 19.4094 2.36659 9.84065 
220 1 106.42 15.8286 1.57144 9.85411 
239 1 106.42 17.3537 3.87357 9.71501 
225 1 106.42 3.87132 4.21297 8.10872 
228 1 106.42 3.6544 5.90649 9.8201 
322 1 106.42 1.73316 5.82024 11.6495 
226 1 106.42 6.29559 5.97915 8.05202 
326 1 106.42 6.12718 5.83306 11.6743 
247 1 106.42 5.74475 7.68177 9.84655 
230 1 106.42 9.65934 5.69064 8.12018 
232 1 106.42 8.08156 5.83504 10.122 
330 1 106.42 9.85228 5.94932 11.8092 
236 1 106.42 12.0648 5.62708 9.84168 
240 1 106.42 15.6915 6.04063 10.1261 
224 1 106.42 19.3152 5.48051 9.88974 
243 1 106.42 1.39471 7.84203 9.74572 
242 1 106.42 2.00588 9.90644 7.89628 
248 1 106.42 3.60835 9.2594 9.97516 
263 1 106.42 2.09575 11.6831 10.0601 
246 1 106.42 5.7326 9.57623 8.13307 
269 1 106.42 7.7933 11.563 7.82938 
346 1 106.42 5.84853 9.76799 11.4684 
369 1 106.42 7.71042 11.5688 11.6353 
365 1 106.42 4.08204 11.5109 11.5849 
349 1 106.42 7.99496 8.00441 11.4805 
250 1 106.42 10.213 10.0318 7.78689 
252 1 106.42 8.1639 9.79656 9.65354 
251 1 106.42 10.0446 7.85519 9.93044 
350 1 106.42 9.8932 9.87069 11.6733 
255 1 106.42 13.7999 7.95525 9.76772 
256 1 106.42 11.8979 10.1374 9.92476 
260 1 106.42 15.811 9.74607 9.78359 
377 1 106.42 15.5406 11.66 11.8419 
354 1 106.42 13.6574 9.83574 11.7186 
241 1 106.42 19.2567 7.87688 8.04462 
258 1 106.42 17.5864 9.82304 7.80869 
244 1 106.42 19.3134 9.81993 10.1396 
259 1 106.42 17.4903 7.72097 10.0869 
261 1 106.42 19.5063 11.8735 8.09411 
262 1 106.42 1.9371 13.7001 7.86281 
268 1 106.42 3.84364 13.5011 10.003 
264 1 106.42 0.181621 13.8943 9.89779 
285 1 106.42 3.85179 15.4617 7.92426 
361 1 106.42 19.5163 11.966 11.7134 
266 1 106.42 5.88139 13.8386 7.79514 
267 1 106.42 6.0561 11.8489 9.62696 
272 1 106.42 7.84602 13.7707 9.71634 
287 1 106.42 5.8213 15.6304 9.74262 
289 1 106.42 7.83136 15.5392 7.6681 
271 1 106.42 10.0395 12.0789 9.65158 
370 1 106.42 9.42286 13.6207 11.6339 
393 1 106.42 11.6947 15.6358 11.7454 
291 1 106.42 9.85909 15.6725 9.70394 
373 1 106.42 11.391 11.9295 11.6888 
276 1 106.42 11.895 13.6651 9.88028 
275 1 106.42 13.7952 12.0847 9.6847 
280 1 106.42 15.4377 14.1278 9.55648 
297 1 106.42 15.2782 15.6822 7.6556 
279 1 106.42 17.4876 11.787 10.0788 
278 1 106.42 17.8279 13.909 8.03773 
378 1 106.42 17.2632 13.9373 11.3641 
205 1 106.42 3.88238 19.5366 8.0082 
201 1 106.42 0.323443 19.6093 7.9733 
281 1 106.42 0.0365168 15.7094 7.89794 
283 1 106.42 1.97697 15.6294 9.99287 
284 1 106.42 0.0281339 17.5153 9.92482 
288 1 106.42 3.7824 17.7086 9.99978 
209 1 106.42 7.68311 19.3189 7.72816 
207 1 106.42 5.73652 19.5428 9.80402 
292 1 106.42 7.72003 17.5639 9.78803 
389 1 106.42 8.00816 15.5904 11.6446 
211 1 106.42 9.86273 19.2056 9.69975 
390 1 106.42 9.56928 17.7134 11.9808 
313 1 106.42 11.6166 19.535 11.8427 
215 1 106.42 13.4393 19.6008 9.86953 
296 1 106.42 11.9535 17.5233 9.44715 
295 1 106.42 13.7841 15.8253 10.0458 
300 1 106.42 15.7298 18.1328 9.65575 
219 1 106.42 17.8118 19.5009 9.73824 
299 1 106.42 17.4937 15.9416 9.716 
381 1 106.42 19.5054 15.6885 11.8421 
398 1 106.42 17.7321 17.8386 11.788 
303 1 106.42 1.85249 0.231423 13.7593 
402 1 106.42 2.11258 2.2243 15.6718 
306 1 106.42 5.73235 1.76275 11.7728 
405 1 106.42 4.06147 0.291747 15.633 
308 1 106.42 3.87299 1.95123 13.6146 
406 1 106.42 5.96832 2.23491 15.249 
312 1 106.42 7.92818 1.9629 13.6987 
310 1 106.42 9.98104 1.83687 11.6552 
331 1 106.42 9.68383 3.845 13.3302 
311 1 106.42 9.63329 0.199303 13.9389 
316 1 106.42 11.8911 1.94436 13.9886 
320 1 106.42 15.3851 1.70118 14.0006 
337 1 106.42 15.4506 3.88933 12.0858 
318 1 106.42 17.3189 1.88293 11.981 
304 1 106.42 19.5059 2.11196 13.9061 
345 1 106.42 3.94341 7.55019 11.8371 
323 1 106.42 1.94027 4.264 14.0559 
343 1 106.42 1.81579 7.83624 13.6376 
422 1 106.42 2.2012 6.09854 15.8163 
325 1 106.42 3.91236 4.13605 11.841 
425 1 106.42 4.34055 4.02037 15.7005 
327 1 106.42 6.14804 3.99549 13.3822 
328 1 106.42 3.98823 5.85694 13.6978 
332 1 106.42 7.77204 5.68413 13.5084 
426 1 106.42 5.95893 6.23771 15.4907 
333 1 106.42 11.9126 3.98226 11.9556 
449 1 106.42 8.09703 7.43058 15.5956 
430 1 106.42 9.87348 5.566 15.4 
351 1 106.42 10.0174 7.6903 13.7197 
334 1 106.42 13.7621 5.87479 11.88 
453 1 106.42 12.1673 7.86962 15.6268 
335 1 106.42 13.8446 3.81307 13.9308 
336 1 106.42 11.8006 6.1263 13.6969 
339 1 106.42 17.3727 3.75164 13.862 
340 1 106.42 15.6916 5.92406 14.0967 
338 1 106.42 17.6264 5.76246 12.0696 
341 1 106.42 19.4608 7.77923 11.984 
321 1 106.42 19.5031 3.95602 12.0585 
324 1 106.42 19.5542 6.06666 14.0386 
342 1 106.42 1.60081 9.75529 11.7587 
442 1 106.42 1.87993 9.96358 15.7209 
348 1 106.42 3.96885 9.72816 13.8622 
363 1 106.42 2.2791 11.6093 13.2423 
347 1 106.42 6.07366 8.04951 13.7569 
367 1 106.42 5.7814 11.4705 13.6797 
445 1 106.42 3.93742 7.85189 15.458 
352 1 106.42 8.24832 9.63839 13.7194 
353 1 106.42 11.8034 7.98529 11.7429 
356 1 106.42 11.6113 10.0307 13.5845 
357 1 106.42 15.6529 7.87998 12.0114 
355 1 106.42 13.7051 7.85627 13.4661 
360 1 106.42 15.5904 9.89478 13.8534 
454 1 106.42 13.6359 10.0267 15.4185 
358 1 106.42 17.6356 9.77444 12.0613 
359 1 106.42 17.5803 7.95036 14.0366 
344 1 106.42 0.0400415 10.1965 13.7933 
477 1 106.42 15.9674 11.7054 15.7061 
362 1 106.42 1.87524 13.8053 12.1357 
465 1 106.42 3.78698 11.7832 15.711 
368 1 106.42 4.08021 13.6897 13.7555 
462 1 106.42 2.01961 13.7578 15.7339 
366 1 106.42 5.85738 13.8192 11.8418 
466 1 106.42 5.9682 13.4359 15.5865 
371 1 106.42 9.76022 11.8576 13.8366 
372 1 106.42 7.69212 13.9122 13.6757 
376 1 106.42 11.7173 13.7901 13.7149 
493 1 106.42 11.62 15.6205 15.8494 
470 1 106.42 9.63704 13.6206 15.7717 
374 1 106.42 14.0284 13.7564 11.8901 
375 1 106.42 13.6321 11.7241 13.5464 
474 1 106.42 13.9197 13.4822 15.4597 
364 1 106.42 19.5923 13.726 13.5585 
380 1 106.42 15.8372 14.1101 13.8515 
379 1 106.42 17.6316 11.8771 13.5495 
382 1 106.42 1.59727 17.7365 11.8822 
383 1 106.42 1.80256 15.8795 13.5769 
388 1 106.42 3.75989 18.0074 13.7877 
485 1 106.42 3.79916 15.8308 15.6053 
482 1 106.42 1.86378 17.6282 15.3988 
481 1 106.42 0.131005 15.5156 15.5244 
385 1 106.42 3.95722 15.8796 11.9309 
387 1 106.42 5.97986 15.8546 13.7923 
386 1 106.42 5.72472 17.816 11.7021 
307 1 106.42 6.0669 0.121278 13.7164 
392 1 106.42 7.75674 17.6719 13.8146 
309 1 106.42 7.69281 19.4244 11.7768 
391 1 106.42 9.78684 15.7801 13.8373 
396 1 106.42 11.5665 17.8523 13.8404 
394 1 106.42 13.7389 17.767 11.8588 
315 1 106.42 13.5653 19.4656 13.7115 
395 1 106.42 13.2669 15.71 13.7421 
400 1 106.42 15.5304 17.6302 14.0266 
494 1 106.42 13.6106 17.2093 15.6493 
497 1 106.42 15.8497 15.8536 15.8485 
384 1 106.42 19.5654 18.1238 13.7394 
397 1 106.42 15.7703 15.9549 11.7429 
317 1 106.42 15.5274 19.6359 11.8247 
319 1 106.42 17.6464 19.5917 13.8521 
399 1 106.42 17.7985 15.921 13.688 
498 1 106.42 17.7044 17.8338 15.6043 
2 1 106.42 1.68135 2.15933 19.578 
401 1 106.42 0.197086 0.0755907 15.8025 
403 1 106.42 1.99441 0.397454 17.4884 
423 1 106.42 1.90385 3.88866 17.6096 
408 1 106.42 3.96506 2.20853 17.7441 
412 1 106.42 7.68893 1.8892 17.9178 
427 1 106.42 6.13091 3.97683 17.801 
407 1 106.42 5.78346 0.312548 17.8335 
409 1 106.42 7.84168 0.224056 15.8684 
410 1 106.42 9.81709 2.15164 15.7952 
413 1 106.42 11.5828 0.041826 15.9766 
416 1 106.42 11.4235 2.22533 17.8149 
433 1 106.42 11.9085 3.96508 15.6306 
411 1 106.42 9.70996 -0.0270714 17.5791 
14 1 106.42 13.4985 2.01828 19.4736 
437 1 106.42 15.8384 3.7158 16.0543 
414 1 106.42 13.5251 1.74512 16.0994 
420 1 106.42 15.454 1.70277 17.8581 
17 1 106.42 15.3356 0.172658 19.6397 
418 1 106.42 17.4431 1.73558 15.6725 
404 1 106.42 19.4378 1.99287 17.685 
421 1 106.42 19.5068 3.94762 15.7637 
439 1 106.42 17.52 3.63294 17.7523 
41 1 106.42 0.133023 7.84447 19.3285 
22 1 106.42 2.09641 6.12131 19.6447 
424 1 106.42 0.168271 5.94375 17.5263 
443 1 106.42 2.24271 7.76833 17.7677 
429 1 106.42 8.04702 4.09038 15.7416 
428 1 106.42 4.11022 5.62869 17.5775 
432 1 106.42 7.65747 5.89159 17.9202 
447 1 106.42 5.94643 7.75873 17.7454 
431 1 106.42 9.5665 4.12003 18.0494 
451 1 106.42 10.071 7.5024 17.3301 
436 1 106.42 11.71 5.66488 17.6979 
53 1 106.42 11.8715 7.90761 19.4795 
434 1 106.42 13.9032 5.98666 16.04 
435 1 106.42 13.7262 4.05537 17.7386 
38 1 106.42 17.7234 6.14227 19.4248 
21 1 106.42 19.329 3.98558 19.4352 
440 1 106.42 15.8085 5.91128 17.7426 
438 1 106.42 17.6203 5.94044 15.9919 
441 1 106.42 0.42561 8.11707 15.8975 
42 1 106.42 1.81323 9.87366 0.0313373 
448 1 106.42 3.97278 9.91514 17.3964 
446 1 106.42 5.84486 9.58608 15.7635 
45 1 106.42 4.11169 8.36142 19.5127 
467 1 106.42 6.01983 11.69 17.7904 
469 1 106.42 7.72616 11.639 15.5348 
50 1 106.42 9.98499 9.65951 19.1577 
450 1 106.42 10.0356 9.55869 15.4952 
452 1 106.42 7.98782 9.69831 17.3705 
471 1 106.42 9.61788 11.6836 17.3356 
54 1 106.42 13.6239 10.0896 19.4731 
473 1 106.42 11.8018 11.8879 15.8496 
455 1 106.42 13.818 8.23221 17.6294 
456 1 106.42 11.7811 9.79152 17.3011 
457 1 106.42 15.7227 7.84321 15.825 
475 1 106.42 14.0011 11.7448 17.3875 
458 1 106.42 17.8464 9.93735 15.6952 
58 1 106.42 17.9254 10.1303 19.6122 
459 1 106.42 17.7647 7.94073 17.4961 
444 1 106.42 19.5908 9.9967 17.7652 
460 1 106.42 15.6908 10.0805 17.7225 
461 1 106.42 0.0192457 12.0053 15.6891 
463 1 106.42 1.87075 11.9148 17.5769 
464 1 106.42 19.4943 13.9664 17.9171 
81 1 106.42 0.00931642 15.626 19.6557 
85 1 106.42 3.9308 15.8112 19.5436 
468 1 106.42 4.00052 13.5237 17.3619 
66 1 106.42 5.75223 13.8684 19.5482 
487 1 106.42 5.71582 15.881 17.6656 
489 1 106.42 7.7054 15.4135 16.058 
472 1 106.42 7.60508 13.5924 17.7332 
70 1 106.42 9.76245 13.503 19.5912 
476 1 106.42 11.7878 13.735 17.606 
74 1 106.42 13.6366 13.4229 19.5525 
495 1 106.42 13.6686 15.5265 17.5846 
480 1 106.42 15.9412 13.9325 17.624 
478 1 106.42 17.6287 13.6825 15.7317 
479 1 106.42 17.6378 11.8986 17.8307 
1 1 106.42 19.6044 19.3578 19.5203 
483 1 106.42 2.01908 15.7558 17.8419 
488 1 106.42 3.51419 17.919 17.5814 
484 1 106.42 0.0966214 17.6636 17.5762 
86 1 106.42 5.6637 17.9194 19.6319 
89 1 106.42 7.72479 15.6831 19.5168 
486 1 106.42 5.82771 17.8825 15.5911 
492 1 106.42 7.55989 17.7476 17.7238 
490 1 106.42 9.3641 17.6058 15.8968 
491 1 106.42 9.4233 15.6791 17.8668 
90 1 106.42 9.77608 18.0676 19.5718 
496 1 106.42 11.521 17.5541 17.716 
417 1 106.42 15.3929 19.5414 15.7679 
415 1 106.42 13.626 19.2558 17.819 
500 1 106.42 15.7717 17.6522 17.5495 
97 1 106.42 15.6738 15.5433 19.4391 
419 1 106.42 17.646 19.5928 17.5692 
499 1 106.42 17.7245 15.8886 17.6374 
98 1 106.42 17.5634 17.8018 19.5242 
