ITEM: TIMESTEP
16000
ITEM: NUMBER OF ATOMS
501
ITEM: BOX BOUNDS pp pp pp
0.0000000000000000e+00 1.9629018200000001e+01
0.0000000000000000e+00 1.9629018200000001e+01
0.0000000000000000e+00 1.9629018200000001e+01
ITEM: ATOMS id type mass x y z 
3 1 106.42 1.92434 19.5123 2.12713 
102 1 106.42 2.0033 2.01271 3.90438 
5 1 106.42 3.91802 0.0477291 0.0621009 
2 1 106.42 2.12114 1.9345 19.6108 
8 1 106.42 3.82942 2.0344 1.89702 
6 1 106.42 5.75185 2.09067 19.5029 
9 1 106.42 7.86711 0.201974 0.319264 
12 1 106.42 7.42287 2.15114 2.10457 
125 1 106.42 4.01096 3.89418 4.15483 
10 1 106.42 9.80271 1.83784 19.5867 
11 1 106.42 9.74882 19.5452 2.0402 
16 1 106.42 11.6403 2.12052 1.85547 
133 1 106.42 11.9325 4.0671 3.7991 
110 1 106.42 9.89841 1.9922 3.90645 
20 1 106.42 15.2885 1.86513 2.14161 
35 1 106.42 13.9041 3.94746 2.05672 
14 1 106.42 13.5105 2.01185 0.202374 
4 1 106.42 19.605 2.0374 1.73714 
37 1 106.42 15.7286 3.75734 19.5357 
18 1 106.42 17.3669 1.68195 0.149756 
137 1 106.42 15.573 4.14023 4.12684 
118 1 106.42 17.6684 2.02281 3.98016 
101 1 106.42 19.599 0.124135 3.62235 
23 1 106.42 1.7472 3.65957 1.99399 
28 1 106.42 4.03979 5.72303 2.29274 
24 1 106.42 0.223896 5.96915 1.71545 
43 1 106.42 2.01793 7.80999 2.01461 
122 1 106.42 1.92845 5.87429 3.76444 
22 1 106.42 1.96674 5.75843 19.5359 
27 1 106.42 5.95883 4.15942 1.91384 
29 1 106.42 7.80972 4.27077 0.00412017 
47 1 106.42 5.63494 7.98293 2.33219 
32 1 106.42 7.76624 6.24092 2.20187 
31 1 106.42 9.69921 4.04271 2.11358 
30 1 106.42 9.66397 6.05879 19.4083 
51 1 106.42 9.87032 7.66791 2.27715 
36 1 106.42 11.8236 5.80845 1.88473 
134 1 106.42 13.8159 5.83636 3.96814 
39 1 106.42 17.7419 3.78188 1.86685 
40 1 106.42 15.6962 5.72094 2.00954 
138 1 106.42 17.6538 5.76674 3.66305 
59 1 106.42 17.6668 7.67996 1.79138 
44 1 106.42 19.4946 9.7557 2.26123 
48 1 106.42 3.50241 10.0818 2.31709 
42 1 106.42 1.77055 9.96408 0.0934386 
67 1 106.42 5.8248 11.9162 1.74108 
52 1 106.42 7.5198 9.68788 1.89203 
146 1 106.42 5.6933 10.2192 3.88409 
45 1 106.42 3.94754 8.13974 0.268583 
71 1 106.42 9.91399 11.6667 2.14952 
69 1 106.42 7.71407 12.0648 0.0218318 
173 1 106.42 11.9519 11.4837 4.03331 
73 1 106.42 11.6746 11.7264 19.5808 
56 1 106.42 11.7735 9.8016 2.15299 
55 1 106.42 13.8597 7.46627 1.7032 
75 1 106.42 13.8297 11.5526 2.28395 
141 1 106.42 19.2812 7.82478 4.12239 
60 1 106.42 15.6474 9.96379 2.08018 
57 1 106.42 15.7458 8.11026 19.605 
77 1 106.42 15.7159 11.6084 19.3499 
157 1 106.42 16.0468 7.6094 3.8049 
58 1 106.42 17.8137 9.77614 0.445797 
63 1 106.42 1.70735 11.8611 1.7457 
83 1 106.42 2.10621 15.822 1.93182 
162 1 106.42 1.85122 13.7817 3.82526 
68 1 106.42 3.88667 13.7842 1.70753 
185 1 106.42 3.94813 15.6393 3.87422 
161 1 106.42 0.0187432 11.8384 3.83173 
72 1 106.42 7.74317 13.7207 1.91645 
87 1 106.42 5.76134 15.7121 2.25051 
89 1 106.42 7.75474 15.6397 19.5665 
170 1 106.42 9.85402 13.6003 3.83753 
193 1 106.42 11.4834 15.823 3.99535 
91 1 106.42 9.81116 15.6068 1.8773 
76 1 106.42 11.8081 13.3594 1.76944 
95 1 106.42 13.4319 15.5938 1.86207 
174 1 106.42 13.4633 13.484 3.54789 
79 1 106.42 17.6707 12.0475 1.72201 
64 1 106.42 0.0431588 13.8468 1.86537 
80 1 106.42 15.7233 13.5313 2.0387 
182 1 106.42 2.04971 17.417 3.97285 
82 1 106.42 1.95986 17.8632 19.5898 
81 1 106.42 0.107576 15.9358 0.0848929 
7 1 106.42 5.73348 0.13986 1.99007 
88 1 106.42 3.83812 17.8605 2.06626 
92 1 106.42 7.71169 17.5533 1.93944 
86 1 106.42 5.84883 17.6213 0.0695322 
96 1 106.42 11.7665 17.499 1.61581 
190 1 106.42 9.64551 17.4466 3.9166 
113 1 106.42 11.6426 19.4736 3.77537 
90 1 106.42 9.73484 17.6585 0.155561 
15 1 106.42 13.6346 19.382 1.85974 
94 1 106.42 13.5612 17.4315 19.6033 
17 1 106.42 15.9152 19.2376 0.191297 
84 1 106.42 0.0948374 17.8254 2.06204 
19 1 106.42 17.6896 19.2052 1.85156 
100 1 106.42 15.6401 17.439 1.96736 
99 1 106.42 17.6277 15.6145 1.97535 
197 1 106.42 15.569 15.6926 3.78463 
104 1 106.42 0.172077 1.70941 5.68919 
202 1 106.42 1.95811 2.21007 7.86565 
108 1 106.42 3.65402 2.12723 5.94483 
106 1 106.42 5.57627 1.68352 4.02502 
112 1 106.42 7.8104 1.84346 5.55836 
127 1 106.42 6.22406 3.79956 5.86135 
206 1 106.42 5.81456 1.93408 7.81189 
131 1 106.42 10.0418 3.76178 6.06824 
111 1 106.42 10.1679 0.12229 6.15301 
114 1 106.42 13.5531 2.08002 3.88277 
116 1 106.42 11.9891 2.17917 5.83371 
115 1 106.42 13.442 19.5814 5.62668 
237 1 106.42 15.94 3.72012 7.5354 
214 1 106.42 13.6467 1.87904 7.65806 
121 1 106.42 0.2302 3.85141 3.89824 
120 1 106.42 15.6965 1.92765 5.61929 
501 2 1.01 15.7441 6.55409 8.4356 
139 1 106.42 17.7932 3.93138 5.69866 
221 1 106.42 19.6342 3.81893 7.61918 
218 1 106.42 17.6949 1.7884 7.59647 
145 1 106.42 3.87356 7.85718 4.25049 
123 1 106.42 1.94792 4.53627 5.76252 
128 1 106.42 3.95837 6.07301 6.02373 
126 1 106.42 6.05925 5.83085 4.32932 
147 1 106.42 6.18787 7.91421 6.28115 
130 1 106.42 9.83181 5.73462 4.08035 
129 1 106.42 7.89547 3.94267 3.97543 
132 1 106.42 8.09449 5.76213 5.93578 
136 1 106.42 11.7944 5.95661 5.86315 
153 1 106.42 11.9109 7.83351 3.81971 
135 1 106.42 13.7421 4.12943 5.93756 
155 1 106.42 13.7319 7.80149 6.03772 
140 1 106.42 15.8291 6.05936 5.79486 
124 1 106.42 19.5681 5.99505 6.04217 
238 1 106.42 17.6969 5.98678 7.81671 
142 1 106.42 1.96358 9.68362 4.13771 
143 1 106.42 1.94064 7.77345 5.99268 
144 1 106.42 0.038656 9.80635 5.8371 
242 1 106.42 2.11995 10.0029 7.51077 
149 1 106.42 7.47193 8.31389 4.0545 
265 1 106.42 4.12451 11.6057 7.91551 
148 1 106.42 4.10423 9.76252 5.9381 
167 1 106.42 5.98476 11.7109 5.81451 
152 1 106.42 7.82352 9.87277 6.2364 
151 1 106.42 10.1966 7.75235 5.83645 
169 1 106.42 7.8071 11.5504 3.86325 
150 1 106.42 9.73724 9.87645 4.14085 
171 1 106.42 10.0517 11.8347 5.90906 
269 1 106.42 8.06433 11.8898 7.63896 
250 1 106.42 9.90695 9.47522 7.8181 
154 1 106.42 14.1382 9.50223 4.03251 
257 1 106.42 15.6267 8.04759 7.85164 
156 1 106.42 12.2619 9.90693 5.90303 
160 1 106.42 15.4175 9.85955 6.15263 
158 1 106.42 17.3086 9.98023 4.15289 
159 1 106.42 17.5543 8.00715 5.79871 
258 1 106.42 17.5776 9.66352 7.72475 
163 1 106.42 1.73729 11.8912 5.77428 
165 1 106.42 3.74943 11.9358 3.7419 
164 1 106.42 19.5724 14.0393 5.67932 
168 1 106.42 3.80352 13.8293 5.93886 
262 1 106.42 1.81314 13.5836 7.76529 
166 1 106.42 5.82703 13.4076 3.97936 
187 1 106.42 5.83163 15.7719 5.89975 
266 1 106.42 5.99693 13.4313 7.70813 
189 1 106.42 7.7777 15.5125 3.7408 
172 1 106.42 7.88636 13.6484 5.63801 
270 1 106.42 10.0791 13.9851 7.95929 
289 1 106.42 7.82442 15.6039 7.74251 
176 1 106.42 11.5314 13.8008 5.64432 
175 1 106.42 13.7717 11.9549 5.53 
273 1 106.42 11.6774 11.9377 7.84364 
274 1 106.42 13.7238 13.6153 7.58193 
195 1 106.42 13.7369 15.2995 5.57255 
177 1 106.42 15.8652 12.0667 4.04522 
179 1 106.42 17.7309 11.902 6.04302 
180 1 106.42 15.9956 13.736 6.03595 
178 1 106.42 17.9661 14.1771 3.79092 
183 1 106.42 1.99632 15.8689 5.97642 
181 1 106.42 0.0764555 15.8882 3.69598 
103 1 106.42 2.0915 0.0479052 5.98333 
184 1 106.42 0.104453 17.9389 5.92693 
188 1 106.42 3.86797 17.6861 5.85304 
105 1 106.42 3.80601 0.1508 3.91799 
281 1 106.42 0.0960969 15.4657 7.7878 
186 1 106.42 5.94159 17.5888 3.84463 
107 1 106.42 5.77274 19.5959 6.04997 
192 1 106.42 7.85879 17.9568 5.97049 
209 1 106.42 8.09847 19.4674 8.02124 
191 1 106.42 9.66366 15.605 5.82576 
109 1 106.42 7.74986 -0.0136755 4.09118 
290 1 106.42 9.84088 17.4784 7.77221 
196 1 106.42 11.6863 17.4873 6.04878 
117 1 106.42 15.6932 19.5919 3.92179 
194 1 106.42 13.305 17.6281 4.0986 
293 1 106.42 12.2013 15.6155 7.77715 
294 1 106.42 13.7642 18.0855 7.76396 
200 1 106.42 15.6426 17.5687 5.64612 
297 1 106.42 15.8002 15.8345 7.75528 
198 1 106.42 17.6175 17.5213 3.97455 
119 1 106.42 17.8917 19.4552 5.65145 
199 1 106.42 17.7193 15.5741 5.81888 
217 1 106.42 15.8662 0.0329035 7.75159 
298 1 106.42 18.0249 17.6527 7.77959 
203 1 106.42 1.90614 0.306382 10.1559 
223 1 106.42 1.96868 3.8967 9.97282 
305 1 106.42 4.04855 19.4825 11.7321 
208 1 106.42 3.82981 2.00178 9.63333 
227 1 106.42 5.85958 3.89952 9.76967 
329 1 106.42 7.76888 3.85144 11.4452 
212 1 106.42 7.84528 1.80919 9.64802 
306 1 106.42 5.77768 1.93034 11.5538 
210 1 106.42 9.93844 1.74674 8.17723 
229 1 106.42 8.00964 3.54175 7.83699 
310 1 106.42 9.82815 1.81883 11.2446 
213 1 106.42 11.9475 0.103086 8.07441 
216 1 106.42 12.1227 2.30486 9.60208 
235 1 106.42 14.076 3.71771 9.90347 
220 1 106.42 15.7147 1.64233 9.79896 
204 1 106.42 19.2482 2.19308 9.97541 
222 1 106.42 1.76408 5.89732 8.01849 
245 1 106.42 3.99396 7.67738 8.16745 
228 1 106.42 3.87004 5.91641 10.0375 
322 1 106.42 1.88518 5.90886 12.0082 
243 1 106.42 2.03165 7.73953 9.97568 
325 1 106.42 3.8471 3.83377 11.6564 
225 1 106.42 3.87025 4.02971 7.46786 
226 1 106.42 5.88123 5.81293 7.84847 
326 1 106.42 5.69674 5.82496 11.7912 
247 1 106.42 6.03858 7.96749 9.86698 
231 1 106.42 10.0583 3.99289 9.81733 
230 1 106.42 9.74794 5.63956 7.82404 
232 1 106.42 7.62658 5.66269 9.66255 
251 1 106.42 10.0097 7.59639 9.63559 
234 1 106.42 14.1112 5.77583 7.95072 
253 1 106.42 11.7565 7.64803 7.9206 
233 1 106.42 11.9463 4.35221 7.73719 
236 1 106.42 11.8239 5.79247 9.92614 
240 1 106.42 15.6409 6.12625 10.0318 
334 1 106.42 13.7981 6.00891 11.8976 
239 1 106.42 17.0044 4.06424 9.75449 
224 1 106.42 19.5246 5.5155 10.0027 
259 1 106.42 17.7232 7.30069 9.89431 
248 1 106.42 3.70067 9.97932 9.68012 
342 1 106.42 1.87149 9.76711 11.5158 
246 1 106.42 5.94376 9.75985 7.97177 
346 1 106.42 6.2515 9.80169 11.6876 
365 1 106.42 3.97233 11.6138 11.8358 
267 1 106.42 5.73366 11.7149 9.90247 
249 1 106.42 7.80877 7.71397 8.20068 
349 1 106.42 7.95633 7.66074 11.5892 
252 1 106.42 7.74648 10.0848 9.77341 
350 1 106.42 9.773 9.78496 11.6133 
256 1 106.42 11.5677 9.78531 9.92995 
254 1 106.42 13.5353 9.77732 8.10557 
255 1 106.42 13.9313 7.94329 9.9643 
354 1 106.42 14.0099 9.82726 11.604 
353 1 106.42 11.927 7.78371 11.591 
260 1 106.42 15.932 9.63328 9.93349 
241 1 106.42 0.205525 8.08157 7.89061 
244 1 106.42 19.0648 9.59446 9.88851 
261 1 106.42 19.552 11.3515 8.18162 
279 1 106.42 17.5533 11.8333 10.0199 
263 1 106.42 1.61715 11.8334 9.69572 
268 1 106.42 3.86755 13.5284 9.63289 
264 1 106.42 19.5132 13.7749 9.86925 
283 1 106.42 2.12326 15.3901 9.93229 
285 1 106.42 4.00707 15.4096 7.92643 
272 1 106.42 7.74732 13.6428 9.7005 
366 1 106.42 5.71385 13.6804 11.4242 
271 1 106.42 9.69817 11.7543 9.79162 
291 1 106.42 9.8731 15.6262 9.96301 
276 1 106.42 11.8359 13.9115 9.9196 
275 1 106.42 13.9246 11.6257 9.90567 
280 1 106.42 15.4731 13.8667 9.53136 
277 1 106.42 15.7512 11.7314 8.03523 
361 1 106.42 19.5036 11.7251 11.8365 
278 1 106.42 17.6901 13.8105 8.0907 
378 1 106.42 17.537 13.9599 11.6326 
282 1 106.42 2.09421 17.3828 8.02786 
205 1 106.42 3.76932 19.6226 8.22517 
201 1 106.42 0.368688 19.478 7.98558 
288 1 106.42 3.85973 17.5958 9.76277 
286 1 106.42 5.86867 17.5173 7.95269 
287 1 106.42 5.84635 15.6468 10.0821 
207 1 106.42 6.02653 19.5317 9.58824 
292 1 106.42 7.97855 17.3515 9.87982 
386 1 106.42 5.88115 17.6881 11.845 
309 1 106.42 7.97152 0.126431 11.8449 
211 1 106.42 9.73734 19.1587 9.78718 
215 1 106.42 13.8095 19.4681 10.1146 
296 1 106.42 11.8431 17.5259 9.69978 
295 1 106.42 13.7549 15.8571 9.66273 
397 1 106.42 15.5267 16.1276 11.6322 
284 1 106.42 0.0727094 17.5582 9.65189 
300 1 106.42 15.6035 17.6823 9.55048 
219 1 106.42 18.0645 0.0278658 9.80874 
299 1 106.42 17.6199 15.8903 9.79697 
302 1 106.42 1.90918 1.96177 12.0091 
303 1 106.42 2.14191 19.3988 13.9347 
308 1 106.42 3.94688 2.12601 13.7899 
304 1 106.42 0.309143 1.80364 13.9907 
406 1 106.42 6.10836 2.10129 16.0102 
327 1 106.42 5.76043 3.86864 13.6187 
307 1 106.42 5.83055 0.301119 13.6516 
312 1 106.42 8.09318 2.19963 13.5355 
331 1 106.42 10.0602 4.16624 13.5567 
311 1 106.42 9.66079 0.0793983 14.0473 
316 1 106.42 11.3201 1.97881 13.5422 
314 1 106.42 13.6917 1.91124 12.052 
320 1 106.42 15.6119 1.8862 13.7802 
333 1 106.42 12.064 3.83622 11.74 
335 1 106.42 13.7481 3.74299 13.9909 
301 1 106.42 19.4955 0.209276 11.9246 
318 1 106.42 17.4906 2.12554 11.6523 
339 1 106.42 17.6309 3.72909 13.977 
321 1 106.42 19.6097 3.8874 12.0673 
319 1 106.42 17.2857 0.199597 13.6598 
323 1 106.42 2.1599 3.97049 13.5512 
445 1 106.42 3.79012 7.60655 15.7996 
345 1 106.42 3.98932 8.20354 11.6461 
425 1 106.42 3.8985 4.03834 15.4917 
328 1 106.42 4.01395 6.02414 13.5868 
426 1 106.42 5.9657 5.78249 15.527 
330 1 106.42 10.1471 5.94308 11.5954 
332 1 106.42 8.0941 6.05725 13.7511 
430 1 106.42 9.94109 5.89261 15.7476 
351 1 106.42 10.1057 7.84935 13.6962 
429 1 106.42 7.78013 3.94148 15.5542 
337 1 106.42 15.7259 3.97494 12.0775 
336 1 106.42 12.0747 5.76913 13.6371 
340 1 106.42 15.3778 5.94207 13.8363 
433 1 106.42 11.6656 3.8686 15.7494 
338 1 106.42 17.6698 5.71174 12.0565 
341 1 106.42 19.5284 7.6897 11.7364 
324 1 106.42 0.169092 6.03559 13.8044 
421 1 106.42 19.4028 4.0912 15.423 
343 1 106.42 2.19764 7.91736 13.6921 
363 1 106.42 2.0945 11.9419 14.0551 
344 1 106.42 0.266839 9.7297 13.5695 
348 1 106.42 4.07967 9.61838 13.5492 
347 1 106.42 6.01635 7.75853 13.6015 
367 1 106.42 5.96227 11.6961 13.5832 
465 1 106.42 4.20338 11.8667 15.6047 
469 1 106.42 7.84954 11.5214 15.4826 
352 1 106.42 7.83463 9.79431 13.5083 
356 1 106.42 11.7335 9.62182 13.5568 
450 1 106.42 9.84495 9.82032 15.6944 
355 1 106.42 13.5862 8.07922 13.8734 
360 1 106.42 15.6869 9.79646 13.9822 
454 1 106.42 13.6476 10.0078 15.7015 
375 1 106.42 13.6259 11.9211 13.7088 
357 1 106.42 15.9365 7.59686 12.1255 
358 1 106.42 17.5886 9.84109 12.0739 
359 1 106.42 17.8558 7.95721 13.916 
379 1 106.42 17.5592 11.8262 13.8713 
458 1 106.42 17.7657 9.92967 15.7524 
362 1 106.42 2.20997 13.6102 11.6642 
462 1 106.42 1.99045 13.8424 15.5353 
485 1 106.42 4.10029 15.5228 15.5858 
369 1 106.42 7.83696 12.2487 11.8476 
368 1 106.42 4.10564 13.694 13.6762 
466 1 106.42 5.99545 13.7911 15.8824 
372 1 106.42 7.60636 13.8227 13.8175 
370 1 106.42 10.1232 13.767 12.0562 
393 1 106.42 11.5054 15.7821 11.9556 
373 1 106.42 12.0152 11.7338 11.6899 
389 1 106.42 8.03793 15.6977 11.9491 
371 1 106.42 9.68886 11.8358 13.7247 
376 1 106.42 11.6202 13.9787 13.9096 
473 1 106.42 11.517 11.8516 15.4768 
377 1 106.42 15.7302 12.076 11.9427 
374 1 106.42 13.6743 13.9621 11.731 
474 1 106.42 13.7781 13.8445 15.6823 
395 1 106.42 14.0241 15.7816 13.8042 
381 1 106.42 19.5467 15.7743 11.6948 
477 1 106.42 15.4432 11.8868 15.5573 
364 1 106.42 19.4655 13.5905 13.6951 
380 1 106.42 15.8497 14.0361 13.4456 
481 1 106.42 19.5531 15.735 15.6575 
461 1 106.42 0.217239 11.7643 15.5345 
478 1 106.42 17.731 13.6785 15.6009 
382 1 106.42 2.00309 17.7404 11.5513 
383 1 106.42 2.03031 15.7192 13.8318 
482 1 106.42 1.89329 17.6697 15.8528 
388 1 106.42 4.04562 17.7148 13.7631 
385 1 106.42 3.65859 15.8189 11.8386 
387 1 106.42 5.90573 15.8096 13.4829 
392 1 106.42 7.78985 17.772 13.7466 
486 1 106.42 5.88933 17.8475 15.6494 
390 1 106.42 9.92119 17.7199 12.0455 
313 1 106.42 11.607 19.5319 11.8892 
391 1 106.42 9.5503 15.5677 13.9026 
396 1 106.42 11.7042 17.1321 14.0902 
394 1 106.42 13.1451 17.5265 12.0162 
315 1 106.42 13.5417 19.6059 13.7883 
400 1 106.42 15.6436 17.5997 13.716 
317 1 106.42 15.445 19.4454 11.8059 
398 1 106.42 17.5587 17.8803 11.8635 
384 1 106.42 19.4983 17.5591 13.6921 
399 1 106.42 17.6399 15.8714 13.8706 
25 1 106.42 3.97367 4.15951 0.15523 
402 1 106.42 2.02232 2.16012 15.772 
401 1 106.42 19.5996 0.0847788 15.6214 
403 1 106.42 2.10988 0.0342639 17.6924 
405 1 106.42 4.11547 0.35729 15.7062 
408 1 106.42 4.02263 2.25868 17.6116 
412 1 106.42 8.04255 1.96857 17.765 
407 1 106.42 5.68739 19.4878 17.7731 
409 1 106.42 7.65082 0.166735 15.6169 
13 1 106.42 11.594 0.0310864 19.5273 
410 1 106.42 9.80364 2.03169 15.6063 
416 1 106.42 11.8001 2.15096 17.3798 
414 1 106.42 13.5942 1.77951 15.8435 
420 1 106.42 15.716 1.80651 17.7254 
437 1 106.42 15.5351 3.90554 15.7588 
418 1 106.42 17.629 1.87283 15.7362 
404 1 106.42 0.158741 2.18751 17.4209 
439 1 106.42 17.6997 4.18929 17.5206 
21 1 106.42 19.611 3.84481 19.51 
419 1 106.42 17.8208 19.509 17.6695 
422 1 106.42 1.75965 5.69991 15.752 
423 1 106.42 1.851 3.99112 17.9245 
424 1 106.42 19.3177 6.07379 17.6715 
428 1 106.42 3.76951 6.07449 17.8708 
26 1 106.42 6.04518 6.05885 0.101619 
427 1 106.42 5.93797 4.13651 17.5852 
447 1 106.42 5.59089 7.79976 17.5775 
33 1 106.42 11.9068 4.01949 19.5026 
49 1 106.42 7.75362 7.9343 19.4597 
449 1 106.42 7.87517 7.70893 15.6277 
432 1 106.42 7.95194 5.9251 17.4927 
431 1 106.42 9.67351 3.87376 17.5568 
451 1 106.42 9.88487 8.17142 17.736 
53 1 106.42 11.6333 7.84956 19.5474 
34 1 106.42 13.4896 5.93394 19.1934 
453 1 106.42 11.7017 7.96302 15.8839 
436 1 106.42 11.7846 6.00986 17.4632 
434 1 106.42 13.8189 5.98268 15.781 
435 1 106.42 13.9298 3.65364 17.6312 
38 1 106.42 17.778 5.76947 0.102068 
440 1 106.42 15.7135 6.04523 17.8908 
438 1 106.42 17.325 5.93228 15.5541 
65 1 106.42 4.08773 11.6364 19.6075 
442 1 106.42 2.3581 9.93112 15.6144 
41 1 106.42 0.0408341 7.91134 19.6627 
443 1 106.42 2.0593 8.03236 17.8168 
441 1 106.42 0.100996 7.82323 15.7943 
444 1 106.42 0.282008 9.8251 17.4656 
46 1 106.42 6.24269 9.62489 19.5175 
448 1 106.42 3.97435 9.98758 17.709 
446 1 106.42 5.82652 9.76804 15.6054 
467 1 106.42 6.07505 11.8627 17.5996 
452 1 106.42 7.71181 9.6539 17.3806 
50 1 106.42 9.50905 9.85125 19.6683 
471 1 106.42 9.55012 11.7908 17.4638 
54 1 106.42 13.6424 9.78936 19.603 
455 1 106.42 13.9272 8.08284 17.7715 
456 1 106.42 11.8208 10.1996 17.591 
457 1 106.42 15.6469 8.13452 15.7315 
459 1 106.42 17.7058 8.00386 17.8657 
460 1 106.42 16.0746 9.84485 17.613 
62 1 106.42 2.08636 13.6901 19.4819 
61 1 106.42 0.118338 11.8618 19.3978 
463 1 106.42 2.05028 11.7687 17.3364 
483 1 106.42 1.95445 15.5121 17.5964 
468 1 106.42 4.18402 13.7995 17.5998 
66 1 106.42 5.65024 13.8223 19.5966 
472 1 106.42 7.75424 13.966 17.7398 
93 1 106.42 11.7039 15.3812 19.5005 
493 1 106.42 11.7172 15.5706 16.0001 
470 1 106.42 9.36795 13.8446 15.7746 
70 1 106.42 9.74351 13.581 0.0742788 
491 1 106.42 9.71834 15.5633 17.8096 
475 1 106.42 13.7726 11.8345 17.5458 
476 1 106.42 11.7199 13.3429 17.5789 
74 1 106.42 13.9621 13.6804 0.055794 
495 1 106.42 13.8427 15.6583 17.7432 
97 1 106.42 15.5124 15.5665 0.20481 
78 1 106.42 17.6611 13.8522 -0.0090237 
497 1 106.42 15.7546 15.4814 15.7569 
464 1 106.42 0.166604 13.6649 17.4676 
480 1 106.42 15.7804 13.4775 17.684 
479 1 106.42 17.9187 11.7135 17.5165 
85 1 106.42 3.70783 15.9581 19.5481 
488 1 106.42 3.86692 17.7646 17.4443 
484 1 106.42 0.340924 17.5744 17.5949 
487 1 106.42 5.7119 16.0971 17.4242 
489 1 106.42 7.49532 15.9981 15.6633 
492 1 106.42 7.72149 17.8735 18.0252 
411 1 106.42 9.79398 19.5189 17.616 
490 1 106.42 9.76569 17.5926 15.7996 
496 1 106.42 11.7898 17.5936 17.7294 
494 1 106.42 13.8435 17.7343 15.8494 
413 1 106.42 11.9069 19.4804 15.6536 
417 1 106.42 15.6799 19.3271 15.8039 
415 1 106.42 13.8922 19.5881 17.7468 
498 1 106.42 17.82 17.7782 15.8183 
1 1 106.42 0.0699524 0.238503 19.4963 
500 1 106.42 15.8015 17.4795 17.8715 
499 1 106.42 17.8421 15.6606 17.5113 
98 1 106.42 17.7104 17.4383 19.5226 
