ITEM: TIMESTEP
18000
ITEM: NUMBER OF ATOMS
501
ITEM: BOX BOUNDS pp pp pp
0.0000000000000000e+00 1.9629018200000001e+01
0.0000000000000000e+00 1.9629018200000001e+01
0.0000000000000000e+00 1.9629018200000001e+01
ITEM: ATOMS id type mass x y z 
3 1 106.42 2.24577 0.273754 1.8556 
8 1 106.42 4.09586 1.97314 2.14625 
7 1 106.42 5.81655 0.18316 1.97913 
27 1 106.42 6.0704 4.0209 1.85696 
106 1 106.42 6.10737 2.1407 3.86034 
109 1 106.42 7.92021 0.306168 3.89579 
12 1 106.42 7.83845 1.98099 1.7219 
16 1 106.42 11.7351 1.95396 1.91029 
11 1 106.42 9.71001 19.6185 1.80902 
113 1 106.42 11.8152 0.164749 3.91884 
110 1 106.42 9.65885 2.22779 3.66641 
10 1 106.42 9.71869 1.88948 19.4849 
14 1 106.42 14.0874 1.91598 0.0693146 
114 1 106.42 13.8134 2.03015 3.77267 
137 1 106.42 15.5383 3.78831 3.62853 
20 1 106.42 15.8666 1.9254 1.97435 
4 1 106.42 0.1229 1.88486 2.30357 
39 1 106.42 17.8499 3.91324 1.97379 
23 1 106.42 2.00539 3.97353 1.96075 
45 1 106.42 3.75047 7.81692 19.5608 
22 1 106.42 1.77201 6.02959 0.344944 
28 1 106.42 3.75862 5.90907 2.03988 
25 1 106.42 3.86163 3.92305 -0.0310681 
26 1 106.42 5.81761 5.74345 0.104144 
129 1 106.42 7.81677 4.17041 3.96374 
126 1 106.42 5.89271 6.22671 3.46067 
32 1 106.42 7.97254 5.79523 1.70719 
31 1 106.42 9.80193 4.04403 1.80014 
36 1 106.42 11.7008 6.09282 2.09346 
130 1 106.42 9.85623 6.01892 3.86825 
35 1 106.42 13.4414 3.81063 1.87942 
40 1 106.42 15.5933 5.80742 2.01614 
55 1 106.42 13.6691 7.82934 1.95883 
134 1 106.42 13.9911 5.73158 3.8856 
24 1 106.42 19.5578 5.73691 2.0659 
138 1 106.42 17.4566 5.8667 4.22646 
59 1 106.42 17.624 7.61608 1.95267 
38 1 106.42 17.8104 5.82499 19.6078 
43 1 106.42 1.90752 7.99289 2.10191 
48 1 106.42 3.74472 9.94525 1.93879 
41 1 106.42 19.3864 7.83134 0.131796 
44 1 106.42 0.0664516 9.82207 1.94506 
63 1 106.42 1.76624 11.6151 2.13693 
47 1 106.42 6.11436 7.97141 1.55198 
52 1 106.42 7.64325 10.0252 2.12415 
146 1 106.42 5.68525 10.0574 3.85251 
169 1 106.42 7.83404 12.0892 3.949 
145 1 106.42 3.79208 8.00966 3.78282 
46 1 106.42 5.53893 10.0242 -0.112206 
51 1 106.42 9.62917 7.84081 1.87075 
71 1 106.42 9.60816 11.886 1.79744 
56 1 106.42 11.7868 10.0392 1.91751 
50 1 106.42 9.77403 9.7769 19.5312 
150 1 106.42 9.80242 10.0096 3.62563 
53 1 106.42 11.7003 7.75262 0.0335207 
75 1 106.42 13.935 11.9982 1.88655 
153 1 106.42 11.6168 7.9289 3.88398 
54 1 106.42 13.9457 9.68934 -0.0174913 
154 1 106.42 13.7297 9.90296 3.78489 
60 1 106.42 16.0174 9.5531 1.66753 
79 1 106.42 17.8372 11.5885 1.95238 
158 1 106.42 17.6767 9.52607 3.76086 
77 1 106.42 15.7519 11.6936 0.0743147 
162 1 106.42 1.79847 13.8166 3.97163 
68 1 106.42 3.6128 13.7269 1.99344 
165 1 106.42 3.835 11.8488 3.92764 
67 1 106.42 5.73538 11.904 2.09941 
87 1 106.42 5.69526 15.6787 1.99062 
166 1 106.42 5.60819 14.0778 3.92386 
72 1 106.42 7.68104 13.9107 2.03983 
170 1 106.42 9.79434 13.5955 4.22495 
91 1 106.42 9.95557 15.7445 2.28668 
76 1 106.42 11.7271 13.7065 2.17755 
95 1 106.42 13.6746 15.7387 2.04137 
174 1 106.42 13.6113 13.4947 4.26452 
197 1 106.42 15.8625 15.5684 3.79468 
74 1 106.42 13.4059 13.641 19.6365 
64 1 106.42 19.5237 13.7346 1.95391 
80 1 106.42 15.9115 13.809 1.71113 
99 1 106.42 17.8161 15.5342 1.81181 
178 1 106.42 17.5155 13.6551 3.97058 
177 1 106.42 15.4529 11.6414 3.55422 
83 1 106.42 1.79086 15.8837 1.96356 
84 1 106.42 0.141913 17.8396 1.82992 
181 1 106.42 19.428 15.665 3.87292 
88 1 106.42 3.96183 17.5634 2.01361 
86 1 106.42 5.95906 17.7922 0.11584 
89 1 106.42 8.011 15.8898 0.371263 
92 1 106.42 7.84063 17.8494 2.18495 
96 1 106.42 11.6393 17.7007 2.33824 
90 1 106.42 9.99772 17.6874 0.13745 
15 1 106.42 13.8694 -0.00378356 1.90096 
100 1 106.42 15.743 17.4963 1.95939 
194 1 106.42 13.552 17.8437 4.08622 
13 1 106.42 11.843 19.3719 0.310106 
97 1 106.42 15.7115 15.7535 0.0444314 
19 1 106.42 17.662 0.0780605 1.83407 
117 1 106.42 15.7008 19.4369 3.87319 
198 1 106.42 17.6178 17.5219 3.55476 
98 1 106.42 17.5144 17.8177 0.127215 
102 1 106.42 1.98926 2.00027 3.96819 
108 1 106.42 3.94655 1.88213 5.86691 
127 1 106.42 5.68452 3.74025 5.96262 
206 1 106.42 5.93821 1.97387 7.9923 
107 1 106.42 6.14495 0.115639 5.71077 
112 1 106.42 7.92085 1.94813 6.03389 
116 1 106.42 11.5905 1.8613 5.79607 
233 1 106.42 11.6321 3.57495 7.73842 
210 1 106.42 9.7971 2.01804 7.68732 
120 1 106.42 15.618 1.79413 5.74368 
135 1 106.42 13.6012 3.75996 5.66785 
115 1 106.42 13.4361 0.196037 6.06901 
104 1 106.42 0.0498613 2.20987 5.93571 
118 1 106.42 17.6894 1.77737 4.18174 
237 1 106.42 15.4843 3.80429 7.87623 
218 1 106.42 17.5438 2.07766 7.90708 
121 1 106.42 0.199653 3.87237 4.0131 
122 1 106.42 2.10189 5.86876 4.1174 
125 1 106.42 3.65762 3.93006 3.78948 
123 1 106.42 1.99988 3.74091 6.14415 
143 1 106.42 1.99829 7.80393 6.01828 
124 1 106.42 0.26539 5.92877 5.88081 
229 1 106.42 7.82192 4.0332 7.59269 
128 1 106.42 4.12875 5.60264 5.74775 
226 1 106.42 5.95175 5.94028 7.82382 
132 1 106.42 7.55395 5.9669 5.58966 
249 1 106.42 7.67128 8.00637 7.64137 
131 1 106.42 9.71914 4.32066 5.6005 
230 1 106.42 10.0079 6.11305 7.62624 
133 1 106.42 11.719 3.81854 3.85186 
136 1 106.42 11.9413 6.01527 5.76892 
140 1 106.42 15.7182 5.68196 5.89252 
234 1 106.42 13.5822 5.77624 7.63537 
157 1 106.42 15.9318 7.73341 4.18484 
141 1 106.42 19.471 7.79449 3.93595 
139 1 106.42 17.4479 3.85396 5.91912 
159 1 106.42 17.5867 7.57329 6.36991 
142 1 106.42 1.71227 9.79983 4.18635 
148 1 106.42 3.73691 9.93332 5.88701 
241 1 106.42 19.4713 7.56555 7.82719 
147 1 106.42 5.75266 8.15467 5.70987 
149 1 106.42 7.84941 7.9028 3.80404 
245 1 106.42 4.14016 8.04505 7.76845 
246 1 106.42 6.0688 10.1704 7.66879 
151 1 106.42 9.60949 8.0421 6.03197 
152 1 106.42 7.5306 10.0089 5.58305 
156 1 106.42 11.4402 9.78105 5.75303 
155 1 106.42 13.9811 8.0442 5.98103 
173 1 106.42 11.89 11.6901 3.99543 
253 1 106.42 11.9707 7.89037 7.82493 
160 1 106.42 15.8549 9.69708 5.62743 
144 1 106.42 19.2446 9.57343 5.94128 
179 1 106.42 17.119 11.7305 5.65305 
261 1 106.42 19.6328 11.7549 7.76529 
163 1 106.42 1.62616 11.6995 5.81373 
183 1 106.42 1.85808 15.4758 6.01969 
265 1 106.42 3.83947 11.9393 7.82569 
189 1 106.42 7.9445 15.8294 3.90299 
167 1 106.42 5.76679 11.8839 5.73291 
168 1 106.42 4.1117 13.9078 6.06896 
172 1 106.42 7.70541 13.4841 6.05873 
171 1 106.42 9.84022 11.8278 6.02186 
293 1 106.42 11.4337 15.7662 7.82859 
176 1 106.42 11.9964 13.5874 6.37582 
175 1 106.42 13.6836 11.4571 6.08184 
195 1 106.42 13.7167 15.7491 6.35003 
180 1 106.42 15.6222 13.8955 5.90517 
161 1 106.42 19.5998 11.8077 3.91774 
164 1 106.42 19.4013 13.8323 5.77578 
278 1 106.42 17.3982 13.738 7.75475 
101 1 106.42 19.5008 19.258 4.06233 
103 1 106.42 1.62878 0.0346535 5.99373 
105 1 106.42 3.94796 0.211744 3.96794 
182 1 106.42 2.12024 17.7638 3.83525 
282 1 106.42 1.63204 17.7164 7.63358 
205 1 106.42 4.03059 19.4953 7.87592 
185 1 106.42 3.78151 15.9331 4.12397 
186 1 106.42 6.00944 17.7096 4.04672 
188 1 106.42 3.76998 17.6992 5.93815 
187 1 106.42 6.00938 15.6512 5.94728 
285 1 106.42 3.93432 15.8572 7.81734 
286 1 106.42 6.06421 17.9201 7.84911 
190 1 106.42 9.86318 17.8004 4.13774 
111 1 106.42 9.5776 0.0728164 5.90143 
191 1 106.42 9.70143 15.8702 5.92647 
192 1 106.42 7.77073 17.7211 5.8551 
193 1 106.42 11.7023 15.4415 4.44764 
196 1 106.42 11.9529 17.8111 5.8391 
200 1 106.42 15.3938 17.5652 5.70735 
217 1 106.42 15.5225 19.4743 7.81143 
281 1 106.42 19.2874 15.8331 7.68889 
199 1 106.42 17.373 16.0275 5.72375 
184 1 106.42 19.4799 17.394 5.85319 
119 1 106.42 17.4583 19.4032 5.84677 
225 1 106.42 3.81448 3.66094 8.20609 
202 1 106.42 2.15117 1.78736 7.76268 
208 1 106.42 4.01755 1.75262 9.82275 
204 1 106.42 0.177187 1.58632 9.81632 
227 1 106.42 5.95485 3.81146 9.79665 
212 1 106.42 8.13885 2.30962 9.88469 
306 1 106.42 6.00735 2.07729 11.9448 
305 1 106.42 3.98769 0.067967 11.9119 
310 1 106.42 9.81994 2.35838 12.0747 
209 1 106.42 7.91329 0.252954 7.99126 
214 1 106.42 13.7206 1.80765 7.88766 
216 1 106.42 11.6652 1.96013 9.80938 
220 1 106.42 15.6005 2.0094 9.83189 
215 1 106.42 13.838 19.4599 9.48733 
313 1 106.42 12.0404 -0.0382134 11.8965 
219 1 106.42 17.4763 0.17534 9.86855 
239 1 106.42 17.9803 3.68162 10.0589 
201 1 106.42 19.2779 0.0128489 7.64845 
223 1 106.42 2.05345 3.7941 10.0352 
222 1 106.42 2.27117 5.83827 7.76056 
224 1 106.42 0.224657 6.09584 9.94211 
322 1 106.42 2.31824 5.90058 11.3867 
228 1 106.42 4.19894 6.02642 9.73829 
247 1 106.42 6.20618 7.78254 9.57025 
333 1 106.42 11.7686 4.00648 11.5084 
232 1 106.42 7.86304 5.89431 9.90475 
231 1 106.42 9.82686 4.16799 9.40667 
251 1 106.42 9.82365 7.70563 9.82075 
349 1 106.42 7.53753 7.97722 11.9254 
330 1 106.42 9.97442 5.91833 11.7024 
235 1 106.42 13.3876 3.889 9.66443 
236 1 106.42 11.6385 6.00141 9.92101 
257 1 106.42 15.6441 7.69124 8.24143 
221 1 106.42 19.6547 4.20544 7.8506 
238 1 106.42 17.594 5.72441 8.22209 
240 1 106.42 15.8488 5.63251 9.9368 
501 2 1.01 16.0806 4.82435 12.6836 
242 1 106.42 1.84357 9.86256 7.79587 
243 1 106.42 1.96281 8.02479 9.59717 
244 1 106.42 0.228368 10.0107 9.84441 
263 1 106.42 2.1927 11.7347 9.87897 
365 1 106.42 4.24842 11.9084 11.5366 
248 1 106.42 4.37528 9.88311 9.6818 
267 1 106.42 6.08468 11.8874 9.70728 
345 1 106.42 3.95088 7.83255 11.8027 
250 1 106.42 9.87779 9.92463 7.86015 
252 1 106.42 7.97303 9.56231 9.85162 
256 1 106.42 11.7452 9.67387 9.85467 
273 1 106.42 11.8477 11.442 7.68101 
254 1 106.42 14.0933 9.66821 7.82366 
255 1 106.42 13.7003 8.08293 9.96766 
275 1 106.42 13.6571 11.6619 10.0027 
277 1 106.42 15.804 11.7603 8.02935 
258 1 106.42 17.6724 9.84687 7.98846 
259 1 106.42 17.9265 8.09669 9.82804 
260 1 106.42 15.6244 10.0004 9.8769 
357 1 106.42 15.7214 8.01002 11.6285 
377 1 106.42 15.705 11.5597 11.9783 
262 1 106.42 1.80849 13.7627 7.93488 
268 1 106.42 3.91217 13.7303 9.76735 
283 1 106.42 2.01589 15.8894 9.4359 
362 1 106.42 1.92545 13.8782 11.5424 
385 1 106.42 3.93032 15.5174 11.4178 
266 1 106.42 5.91674 13.9457 7.87435 
272 1 106.42 7.81624 13.6738 9.93922 
287 1 106.42 5.85212 15.7187 9.69281 
389 1 106.42 7.78799 15.6957 11.8532 
269 1 106.42 7.86178 11.5676 8.15175 
271 1 106.42 10.0905 11.6726 9.78653 
270 1 106.42 9.66425 13.7495 7.63992 
291 1 106.42 9.75049 15.7772 9.77448 
369 1 106.42 7.73196 11.499 11.6397 
370 1 106.42 9.87146 13.8865 11.7388 
274 1 106.42 13.9548 13.7058 8.08932 
276 1 106.42 11.7556 13.7309 9.76306 
397 1 106.42 15.7159 15.7134 11.8665 
297 1 106.42 15.7522 15.6307 8.16146 
280 1 106.42 15.9658 13.5639 10.0344 
279 1 106.42 17.8766 11.6744 9.73944 
264 1 106.42 19.5678 13.5761 9.71476 
299 1 106.42 17.7907 15.4842 9.82076 
203 1 106.42 2.15605 19.3906 9.58699 
284 1 106.42 19.5193 17.7169 9.69668 
289 1 106.42 7.91088 15.8659 7.85674 
288 1 106.42 3.815 17.7308 9.85364 
207 1 106.42 5.87808 0.254102 9.8773 
386 1 106.42 6.0002 17.6329 11.7169 
290 1 106.42 9.62488 17.8327 8.01131 
213 1 106.42 11.5172 19.4752 7.8372 
292 1 106.42 7.81428 17.9912 9.84812 
211 1 106.42 9.86931 0.294677 9.77468 
296 1 106.42 11.8854 17.7819 10.0423 
294 1 106.42 13.7521 17.4505 8.03517 
295 1 106.42 13.5602 15.7083 10.094 
394 1 106.42 14.2278 17.8009 11.5759 
298 1 106.42 17.3919 17.8721 7.84258 
300 1 106.42 15.8741 17.6004 9.797 
398 1 106.42 17.7648 17.4928 11.8155 
302 1 106.42 2.00217 1.97995 11.5883 
323 1 106.42 1.87687 3.70093 13.8412 
303 1 106.42 1.81933 0.183221 13.6536 
402 1 106.42 1.90083 1.75689 15.5301 
325 1 106.42 4.00647 3.80504 11.9823 
308 1 106.42 3.89805 1.84458 13.7841 
327 1 106.42 5.96392 3.84033 13.8423 
307 1 106.42 6.03825 19.5629 13.923 
309 1 106.42 7.97711 0.130921 11.6555 
312 1 106.42 7.95124 1.91406 13.8279 
316 1 106.42 11.9009 1.90719 13.7233 
410 1 106.42 9.95265 1.77998 15.6078 
429 1 106.42 7.8082 3.96214 15.8413 
314 1 106.42 13.8266 1.85758 11.7528 
335 1 106.42 13.483 4.0696 13.4402 
337 1 106.42 15.5625 3.83372 11.7025 
433 1 106.42 12.0277 3.65376 15.6757 
414 1 106.42 13.872 2.05986 15.4481 
318 1 106.42 17.944 1.60167 11.9013 
304 1 106.42 19.5813 2.18979 13.7355 
320 1 106.42 15.9794 1.81075 13.7023 
339 1 106.42 17.6668 3.97574 13.644 
321 1 106.42 0.133359 3.72247 11.7728 
341 1 106.42 0.124021 7.76215 11.8393 
324 1 106.42 0.159526 5.6486 13.7148 
328 1 106.42 3.65541 5.54791 13.7377 
343 1 106.42 2.06313 7.60358 13.6713 
326 1 106.42 5.86667 5.69416 11.6258 
347 1 106.42 5.64208 7.84314 13.7057 
332 1 106.42 7.45719 6.03102 13.8965 
329 1 106.42 7.9015 3.99596 11.9018 
331 1 106.42 10.0464 3.84014 14.0181 
351 1 106.42 9.56036 7.90278 13.5337 
334 1 106.42 13.555 5.96815 11.7538 
336 1 106.42 11.5459 6.13839 14.1325 
340 1 106.42 15.8042 5.76866 13.6678 
355 1 106.42 14.0894 7.61257 13.8534 
437 1 106.42 15.6985 3.89014 15.5878 
338 1 106.42 17.6969 6.0551 11.5526 
438 1 106.42 18.106 5.63436 15.8583 
441 1 106.42 19.6621 7.8882 15.5796 
342 1 106.42 2.11972 9.46415 11.9888 
344 1 106.42 19.5446 9.78128 13.8684 
461 1 106.42 0.0650199 11.7798 15.6458 
442 1 106.42 1.902 9.77153 15.8165 
361 1 106.42 19.5865 11.8218 11.7915 
363 1 106.42 1.93594 11.6611 13.6359 
346 1 106.42 5.93839 9.79549 11.8734 
449 1 106.42 7.78596 8.02721 15.7021 
348 1 106.42 3.8453 9.88814 13.7532 
446 1 106.42 5.80998 10.0541 15.7292 
353 1 106.42 11.7236 7.84635 11.9954 
350 1 106.42 9.84126 9.61724 11.767 
352 1 106.42 7.87898 10.1333 13.6448 
450 1 106.42 9.51308 10.2008 15.8571 
453 1 106.42 11.5377 8.21039 15.5047 
354 1 106.42 13.5478 9.73541 11.9436 
373 1 106.42 11.7261 11.8828 11.7862 
356 1 106.42 11.6623 9.93323 13.8707 
473 1 106.42 11.8921 11.7329 16.1485 
360 1 106.42 15.8693 10.0419 13.9591 
358 1 106.42 17.8859 9.82776 11.7037 
359 1 106.42 17.5931 7.76537 13.5201 
458 1 106.42 17.6237 9.6763 15.694 
381 1 106.42 0.0821963 15.7416 11.5799 
462 1 106.42 2.00971 13.6328 15.6772 
368 1 106.42 3.79736 13.7671 13.6539 
364 1 106.42 0.140434 13.8236 14.0034 
366 1 106.42 5.88696 13.7233 11.795 
367 1 106.42 5.98634 11.8517 13.809 
465 1 106.42 3.82887 11.8285 15.4933 
387 1 106.42 5.91828 15.8076 13.7523 
466 1 106.42 5.78153 13.985 15.6387 
372 1 106.42 8.23804 13.5914 13.5068 
371 1 106.42 10.0516 12.0067 13.7489 
393 1 106.42 11.853 15.7758 11.8388 
470 1 106.42 10.1312 13.6264 15.6269 
374 1 106.42 13.9235 13.6192 11.7869 
376 1 106.42 11.8688 13.9122 13.8247 
375 1 106.42 13.7699 11.7269 13.672 
380 1 106.42 15.694 13.6702 13.9322 
378 1 106.42 17.6333 13.5281 11.9284 
379 1 106.42 17.8409 11.869 13.6788 
478 1 106.42 17.7425 13.8208 15.4902 
382 1 106.42 2.32852 17.6449 11.8797 
301 1 106.42 0.159479 19.4652 11.4667 
401 1 106.42 0.00648053 19.344 15.8631 
383 1 106.42 2.28274 15.7516 13.6823 
384 1 106.42 0.0878336 17.5278 13.6738 
482 1 106.42 2.13818 17.7105 15.3622 
485 1 106.42 3.98808 15.837 15.8366 
388 1 106.42 4.33437 17.8187 13.4402 
392 1 106.42 7.82447 17.5217 13.9413 
311 1 106.42 10.1319 19.4425 13.3593 
391 1 106.42 10.054 15.6851 13.8307 
390 1 106.42 9.64833 17.3931 11.7677 
396 1 106.42 12.0412 17.7137 13.8879 
395 1 106.42 13.7106 15.7229 13.8001 
315 1 106.42 13.776 19.423 13.8726 
319 1 106.42 17.9948 19.3822 13.9894 
400 1 106.42 15.7747 17.8203 13.9398 
317 1 106.42 15.9606 0.0640279 11.9741 
481 1 106.42 19.5669 15.6419 15.7883 
399 1 106.42 17.6116 15.7682 13.6187 
498 1 106.42 17.7208 17.3338 15.7547 
2 1 106.42 1.92891 2.11301 19.6086 
403 1 106.42 1.8551 0.0265971 17.5437 
5 1 106.42 3.94608 0.0628429 19.4578 
6 1 106.42 5.89524 2.05259 0.133525 
406 1 106.42 5.69158 2.00247 15.5105 
408 1 106.42 4.07235 1.81371 17.6972 
412 1 106.42 7.68483 2.03031 17.5941 
407 1 106.42 5.99133 0.0511944 17.5634 
413 1 106.42 11.8933 0.363018 15.7617 
431 1 106.42 9.84491 3.99799 17.3416 
33 1 106.42 11.7425 3.95375 19.4968 
411 1 106.42 9.67038 0.0976489 17.9134 
416 1 106.42 11.9796 1.65341 18.1354 
435 1 106.42 13.3708 3.77179 17.5849 
415 1 106.42 13.8899 19.5324 17.1535 
18 1 106.42 17.7366 2.03862 19.4809 
404 1 106.42 19.664 1.7938 17.6592 
21 1 106.42 19.6838 3.67788 0.116989 
1 1 106.42 0.107545 -0.0986734 0.173801 
420 1 106.42 15.6042 2.09319 17.6476 
418 1 106.42 18.0097 2.02486 15.5509 
439 1 106.42 17.7299 3.98369 17.6434 
417 1 106.42 15.9346 0.16255 15.7871 
425 1 106.42 4.03757 3.79886 15.7967 
421 1 106.42 0.331645 3.85805 15.9651 
422 1 106.42 1.90634 6.09992 15.8022 
423 1 106.42 2.05586 4.03236 17.9374 
424 1 106.42 0.109282 5.72497 17.8748 
443 1 106.42 1.85801 7.80391 17.686 
426 1 106.42 5.79288 5.92757 15.6898 
445 1 106.42 4.04681 7.89259 15.5781 
428 1 106.42 3.98201 6.09444 17.5458 
427 1 106.42 5.87224 3.90322 17.6999 
447 1 106.42 6.22042 7.94841 17.7654 
432 1 106.42 7.88962 5.8208 17.6637 
29 1 106.42 7.83872 4.17245 19.5134 
30 1 106.42 9.83269 5.9275 19.4614 
430 1 106.42 9.64564 6.12735 15.6113 
436 1 106.42 11.5522 5.94749 17.5665 
49 1 106.42 7.98822 7.91748 0.0641138 
37 1 106.42 15.3914 3.96397 19.4103 
34 1 106.42 13.5957 5.9209 19.5721 
434 1 106.42 13.5014 5.68443 15.8079 
440 1 106.42 15.7306 5.68986 17.4524 
457 1 106.42 15.8269 7.7178 15.8166 
57 1 106.42 15.6697 7.50333 19.3854 
42 1 106.42 2.11049 9.73998 19.4092 
444 1 106.42 0.0225751 9.65126 17.5677 
448 1 106.42 3.92117 9.31156 17.6038 
452 1 106.42 7.50511 9.89463 17.9389 
451 1 106.42 9.54197 7.8581 17.5601 
456 1 106.42 11.5567 9.63133 17.6762 
73 1 106.42 11.619 11.7514 0.103762 
454 1 106.42 13.8028 9.79304 15.585 
455 1 106.42 13.4708 7.91854 17.7394 
475 1 106.42 13.6193 11.6717 17.83 
460 1 106.42 15.4648 9.70491 17.6639 
58 1 106.42 17.6339 9.81679 19.1078 
459 1 106.42 17.8195 7.60436 17.4831 
479 1 106.42 17.5579 11.703 17.517 
61 1 106.42 0.182562 11.478 19.5329 
65 1 106.42 3.63965 12.0458 19.7527 
81 1 106.42 0.0126778 15.5006 19.2556 
463 1 106.42 1.85096 11.5484 17.3585 
62 1 106.42 1.79403 13.7216 19.4889 
464 1 106.42 0.0669385 13.5751 17.4741 
468 1 106.42 4.09338 13.9921 17.4892 
69 1 106.42 7.46061 11.7249 0.225544 
469 1 106.42 7.67402 12.0219 15.8187 
467 1 106.42 5.35514 11.8373 17.7876 
66 1 106.42 5.88328 13.5292 19.6081 
70 1 106.42 9.59521 14.1154 19.6562 
472 1 106.42 7.94429 13.7106 17.5332 
471 1 106.42 9.83058 11.7046 17.8453 
93 1 106.42 11.7691 15.896 19.512 
476 1 106.42 11.6926 13.681 17.7952 
493 1 106.42 11.9476 15.7673 15.7779 
474 1 106.42 13.7406 13.405 15.8637 
495 1 106.42 13.7413 15.5985 17.9836 
480 1 106.42 15.6427 13.662 17.8412 
477 1 106.42 15.9365 11.7583 15.765 
78 1 106.42 17.7808 13.3678 19.4799 
499 1 106.42 17.6123 15.7701 17.7545 
405 1 106.42 3.94737 19.5799 15.8749 
483 1 106.42 2.00525 16.0768 17.5745 
82 1 106.42 2.10585 17.8121 19.517 
9 1 106.42 7.88317 19.2717 19.5224 
409 1 106.42 8.09907 19.639 15.6327 
486 1 106.42 5.83522 17.6954 15.7257 
489 1 106.42 7.89519 15.7287 15.8322 
85 1 106.42 3.84458 15.5977 19.6061 
488 1 106.42 4.2147 17.7381 17.8715 
487 1 106.42 6.13866 16.0074 17.6681 
491 1 106.42 9.81237 15.5933 17.5323 
492 1 106.42 7.96979 17.6777 17.6165 
490 1 106.42 9.98495 17.9822 15.7629 
17 1 106.42 15.7486 19.4471 19.6485 
94 1 106.42 13.8081 17.6509 0.0775293 
496 1 106.42 11.777 17.9893 17.7717 
494 1 106.42 13.6669 17.4899 15.9074 
497 1 106.42 15.4597 15.5394 15.7121 
484 1 106.42 19.5706 17.6156 17.7577 
419 1 106.42 17.5171 0.140749 17.808 
500 1 106.42 15.7704 17.7471 17.4818 
