ITEM: TIMESTEP
18500
ITEM: NUMBER OF ATOMS
501
ITEM: BOX BOUNDS pp pp pp
0.0000000000000000e+00 1.9629018200000001e+01
0.0000000000000000e+00 1.9629018200000001e+01
0.0000000000000000e+00 1.9629018200000001e+01
ITEM: ATOMS id type mass x y z 
3 1 106.42 2.14103 0.10817 1.90993 
4 1 106.42 0.116602 1.93919 2.23608 
23 1 106.42 1.91161 3.77447 2.15646 
125 1 106.42 3.85947 3.85 3.83347 
2 1 106.42 1.83083 2.00854 0.117183 
21 1 106.42 0.116414 3.77597 0.233988 
8 1 106.42 4.06626 2.02829 2.02643 
7 1 106.42 5.8142 19.6008 2.03912 
106 1 106.42 6.0809 2.08734 3.93358 
12 1 106.42 7.68572 2.13745 1.69923 
6 1 106.42 5.77145 1.9154 0.150321 
16 1 106.42 11.7119 1.72099 1.87747 
11 1 106.42 9.89223 0.0440686 2.04809 
110 1 106.42 9.68032 2.29237 3.86199 
133 1 106.42 11.6323 3.7916 3.682 
14 1 106.42 13.7543 1.8873 0.0850115 
114 1 106.42 13.7958 1.95005 3.93139 
137 1 106.42 15.7291 3.85362 3.64694 
35 1 106.42 13.6321 3.88655 2.00308 
20 1 106.42 15.8813 1.87188 1.79837 
19 1 106.42 17.8313 0.206062 1.92887 
22 1 106.42 1.84234 6.0262 0.217364 
28 1 106.42 3.75016 6.03903 1.81695 
27 1 106.42 5.96667 4.10893 1.93085 
26 1 106.42 5.556 5.76309 19.4862 
126 1 106.42 5.67048 6.27209 3.48164 
32 1 106.42 8.00547 5.63346 1.70616 
31 1 106.42 9.97385 3.96236 1.87589 
130 1 106.42 9.89507 5.92759 3.86871 
53 1 106.42 11.6506 7.74267 0.01422 
36 1 106.42 12.0403 6.04973 2.23043 
40 1 106.42 15.6387 5.88384 2.02839 
134 1 106.42 13.7756 5.57625 3.95655 
39 1 106.42 17.6902 4.02759 1.94407 
24 1 106.42 19.6039 5.84195 2.14822 
59 1 106.42 17.6414 7.5318 1.90799 
41 1 106.42 19.3808 7.87586 19.452 
141 1 106.42 19.6016 7.81246 3.91289 
43 1 106.42 1.70777 7.84894 2.0051 
48 1 106.42 3.72053 9.87348 2.11437 
44 1 106.42 19.6021 9.81512 1.76168 
63 1 106.42 1.9329 11.7461 2.05676 
145 1 106.42 3.68586 7.90243 3.80443 
47 1 106.42 5.84938 7.87645 1.61439 
52 1 106.42 7.77341 10.1078 2.02819 
146 1 106.42 5.81138 9.85357 3.84066 
149 1 106.42 7.855 7.92709 3.66802 
69 1 106.42 7.76185 11.7426 0.26162 
51 1 106.42 9.75364 7.9776 1.88207 
150 1 106.42 9.58699 10.1192 3.80109 
153 1 106.42 11.5324 7.97678 3.98352 
49 1 106.42 7.96991 8.08255 19.5744 
55 1 106.42 13.7111 8.07085 2.07391 
56 1 106.42 11.926 9.90698 1.85747 
154 1 106.42 13.629 9.86256 3.85926 
177 1 106.42 15.4984 11.4925 3.57021 
60 1 106.42 15.8704 9.48111 1.73655 
79 1 106.42 17.733 11.6854 1.99787 
158 1 106.42 17.7398 9.61923 3.81042 
77 1 106.42 15.7416 11.7216 19.5804 
68 1 106.42 3.61681 13.7887 2.09623 
65 1 106.42 3.76337 11.8377 0.31714 
85 1 106.42 3.74365 15.5624 0.0636703 
67 1 106.42 5.68437 12.0407 2.17154 
72 1 106.42 7.60899 13.9487 2.11161 
71 1 106.42 9.76219 12.1151 1.86859 
76 1 106.42 11.7106 13.8569 2.13567 
73 1 106.42 11.514 11.9246 0.21103 
70 1 106.42 9.68555 13.9567 0.209202 
75 1 106.42 13.8996 12.2228 1.79319 
74 1 106.42 13.5619 13.8748 0.130183 
197 1 106.42 15.7479 15.7969 3.71186 
64 1 106.42 0.0329341 13.6523 2.08637 
80 1 106.42 15.834 13.9409 1.83877 
99 1 106.42 17.8771 15.6323 1.74527 
181 1 106.42 19.3742 15.6138 3.89209 
97 1 106.42 15.7212 15.6185 19.5401 
161 1 106.42 19.5449 11.7371 3.94112 
83 1 106.42 1.66832 15.6452 1.92263 
84 1 106.42 0.0517811 17.7356 2.13537 
182 1 106.42 1.9512 17.7347 3.73527 
1 1 106.42 0.18031 19.4741 0.13765 
87 1 106.42 5.78776 15.7713 2.05351 
88 1 106.42 4.00442 17.7581 1.87236 
86 1 106.42 5.92352 17.7643 0.142946 
92 1 106.42 7.77374 18.0133 2.26224 
91 1 106.42 10.0874 15.693 2.29827 
89 1 106.42 7.91884 15.9002 0.0701487 
90 1 106.42 9.91273 17.6647 0.0439193 
189 1 106.42 7.97351 15.7507 3.88309 
95 1 106.42 13.8027 15.6727 2.02589 
96 1 106.42 12.0117 17.5699 2.19175 
15 1 106.42 13.9286 19.6004 2.00898 
13 1 106.42 11.9569 19.4532 0.357303 
117 1 106.42 15.6361 19.4659 3.8846 
94 1 106.42 13.7841 17.6145 0.106942 
100 1 106.42 15.8769 17.6106 1.82854 
198 1 106.42 17.5927 17.746 3.61061 
98 1 106.42 17.4981 17.7408 0.0711103 
17 1 106.42 15.6586 0.0469644 0.116123 
102 1 106.42 1.91454 1.80196 3.96891 
104 1 106.42 19.6025 1.97727 5.92173 
121 1 106.42 0.0529428 3.91821 4.04967 
123 1 106.42 2.22668 3.76116 6.19417 
103 1 106.42 1.75437 0.0495596 5.93842 
202 1 106.42 2.02928 1.6324 7.79219 
108 1 106.42 3.93177 1.93283 5.70539 
127 1 106.42 5.76231 3.86432 5.96743 
107 1 106.42 5.93163 19.6112 5.6392 
105 1 106.42 4.03451 0.152876 3.92964 
109 1 106.42 8.05882 0.267508 4.02874 
112 1 106.42 7.90003 2.3022 5.84058 
116 1 106.42 11.5705 1.94696 5.71496 
233 1 106.42 11.7665 3.82516 7.6132 
210 1 106.42 9.76214 2.10382 7.71667 
111 1 106.42 9.59245 0.12445 5.96229 
113 1 106.42 11.8772 0.189209 3.94281 
120 1 106.42 15.702 1.99097 5.90288 
135 1 106.42 13.5989 3.8583 5.79987 
115 1 106.42 13.5397 0.199508 6.0471 
214 1 106.42 13.6363 1.89012 7.77941 
118 1 106.42 17.7446 1.69814 4.14784 
139 1 106.42 17.3512 3.78117 5.97744 
122 1 106.42 2.09318 5.76063 4.13389 
143 1 106.42 1.92183 7.93427 5.98588 
124 1 106.42 0.195102 5.70978 5.79393 
222 1 106.42 2.32937 5.93959 7.62006 
129 1 106.42 7.80297 4.15674 3.96876 
229 1 106.42 7.89409 4.10974 7.53368 
128 1 106.42 4.01758 5.61359 5.78485 
226 1 106.42 6.07266 6.10245 7.66945 
132 1 106.42 7.43779 6.03198 5.61416 
131 1 106.42 9.8468 4.34077 5.84175 
230 1 106.42 9.90569 5.93884 7.68315 
136 1 106.42 11.8653 5.99339 5.69263 
140 1 106.42 15.5247 5.61835 5.89806 
234 1 106.42 13.6274 5.68596 7.64561 
138 1 106.42 17.57 5.7164 4.39214 
157 1 106.42 15.5979 7.62615 4.00113 
159 1 106.42 17.4578 7.49907 6.22717 
142 1 106.42 1.79034 9.77181 3.90834 
148 1 106.42 3.7598 10.0737 5.92369 
163 1 106.42 1.55447 11.8518 5.92085 
242 1 106.42 1.84603 9.87956 7.6694 
249 1 106.42 7.69375 8.178 7.60487 
147 1 106.42 5.66515 8.06375 5.64279 
245 1 106.42 4.13007 7.9653 7.76539 
246 1 106.42 5.78255 9.99974 7.67719 
152 1 106.42 7.59233 9.88665 5.56642 
151 1 106.42 9.68663 7.99798 6.04265 
156 1 106.42 11.4956 9.85333 5.49918 
171 1 106.42 9.73747 11.6799 6.04441 
250 1 106.42 9.86618 9.8835 7.75047 
155 1 106.42 13.7527 7.95701 5.77832 
173 1 106.42 11.6267 11.8044 3.88966 
253 1 106.42 11.9723 7.97285 7.87421 
175 1 106.42 13.8577 11.2267 5.96681 
273 1 106.42 11.999 11.4028 7.82978 
254 1 106.42 14.2006 9.70238 7.74739 
160 1 106.42 15.8306 9.66129 5.7571 
144 1 106.42 19.4326 9.53587 5.9664 
261 1 106.42 19.5586 11.8016 7.81837 
162 1 106.42 1.94052 13.6546 4.01592 
165 1 106.42 3.88416 11.7943 4.00796 
183 1 106.42 1.94595 15.681 5.89143 
166 1 106.42 5.70326 14.0934 3.9986 
167 1 106.42 5.61096 11.9712 5.74087 
168 1 106.42 3.88296 13.8129 6.12723 
172 1 106.42 7.73849 13.6699 6.17201 
187 1 106.42 5.78923 15.7457 5.95974 
169 1 106.42 7.87936 12.2364 3.89782 
170 1 106.42 9.76169 13.7675 4.30065 
193 1 106.42 11.7501 15.2983 4.45594 
270 1 106.42 9.74307 13.6849 7.74715 
174 1 106.42 13.7919 13.7262 4.34892 
176 1 106.42 11.9878 13.7495 6.47226 
180 1 106.42 15.5384 13.9048 5.92598 
178 1 106.42 17.5061 13.6116 4.01714 
179 1 106.42 17.2901 11.8332 5.52977 
164 1 106.42 19.21 14.0238 5.82666 
278 1 106.42 17.5289 13.8277 7.62209 
282 1 106.42 1.60841 17.6509 7.57195 
185 1 106.42 3.70331 15.9217 3.89152 
188 1 106.42 3.6417 17.8716 5.84715 
285 1 106.42 3.88493 15.7799 7.85414 
186 1 106.42 5.97034 17.6361 3.89502 
192 1 106.42 7.64255 17.688 5.96758 
190 1 106.42 9.88116 17.7517 4.03288 
191 1 106.42 9.84146 15.8636 5.89892 
213 1 106.42 11.5487 19.5011 7.73415 
194 1 106.42 13.6296 17.6811 3.96443 
195 1 106.42 13.6675 15.6805 6.21708 
196 1 106.42 11.7234 17.7667 5.92976 
200 1 106.42 15.5221 17.6269 5.70526 
101 1 106.42 19.3832 19.3628 3.95604 
281 1 106.42 19.3018 15.5712 7.74362 
199 1 106.42 17.4102 15.6538 5.70524 
184 1 106.42 19.5159 17.5565 5.82253 
119 1 106.42 17.4755 19.309 5.81794 
201 1 106.42 19.1923 19.5808 7.62051 
225 1 106.42 4.02073 3.89301 8.08875 
204 1 106.42 0.181294 1.49366 9.51598 
223 1 106.42 2.00956 3.80215 9.77219 
302 1 106.42 2.03333 2.12 11.6556 
321 1 106.42 0.224502 4.02969 11.7489 
206 1 106.42 5.87034 1.91004 7.97531 
208 1 106.42 4.07758 1.90914 10.0182 
227 1 106.42 6.064 3.87106 9.93083 
207 1 106.42 5.99354 0.265005 10.0029 
212 1 106.42 8.35348 2.25343 9.95071 
209 1 106.42 7.83152 0.225783 8.10539 
216 1 106.42 11.5959 2.0251 9.94056 
211 1 106.42 9.87071 0.308983 9.78558 
309 1 106.42 7.99646 0.170883 11.7806 
237 1 106.42 15.359 3.95194 7.87518 
220 1 106.42 15.6924 2.09003 9.90359 
235 1 106.42 13.3684 3.88803 9.64346 
314 1 106.42 13.7456 1.77988 11.7587 
337 1 106.42 15.6913 3.74586 11.6929 
218 1 106.42 17.4501 2.16078 7.97968 
219 1 106.42 17.6423 0.127321 9.78753 
239 1 106.42 17.901 3.60616 10.0975 
224 1 106.42 0.269184 6.15375 9.97543 
322 1 106.42 2.09921 5.79017 11.5095 
221 1 106.42 0.165122 4.10614 7.91755 
228 1 106.42 4.12321 6.16798 9.69857 
247 1 106.42 6.11565 7.86365 9.68394 
326 1 106.42 5.70064 5.71784 11.6502 
333 1 106.42 11.7029 3.86935 11.6255 
232 1 106.42 7.91291 6.02361 9.98984 
231 1 106.42 9.8938 4.23389 9.51512 
251 1 106.42 9.81844 7.76 9.68872 
330 1 106.42 9.749 5.94596 11.9311 
236 1 106.42 11.5396 6.03431 9.88636 
257 1 106.42 15.6604 7.61854 8.14583 
334 1 106.42 13.5283 6.06084 11.6108 
241 1 106.42 19.4446 7.54751 7.94856 
238 1 106.42 17.6638 5.75898 8.21829 
240 1 106.42 15.5812 5.65115 9.93725 
338 1 106.42 17.783 6.02873 11.3703 
243 1 106.42 2.14503 8.05636 9.52022 
244 1 106.42 0.266709 10.0155 9.86462 
263 1 106.42 2.35282 11.7443 10.0214 
248 1 106.42 4.35681 9.53095 9.74644 
369 1 106.42 7.80675 11.6219 11.6762 
252 1 106.42 7.86004 9.49815 9.85316 
256 1 106.42 11.7737 9.82676 9.9658 
269 1 106.42 7.91246 11.5113 8.01547 
271 1 106.42 9.90514 11.6844 9.75445 
350 1 106.42 9.95428 9.81359 11.7307 
255 1 106.42 13.7359 7.86866 9.87726 
275 1 106.42 13.4766 11.6791 9.98206 
260 1 106.42 15.5239 10.0295 9.81599 
258 1 106.42 17.6814 9.74559 7.77636 
259 1 106.42 17.877 8.0864 10.0023 
357 1 106.42 15.6764 7.8261 11.6681 
279 1 106.42 17.8683 11.6164 9.85764 
358 1 106.42 17.8332 9.68144 11.7302 
265 1 106.42 3.97632 11.8002 7.89914 
262 1 106.42 1.90429 13.9119 7.88266 
268 1 106.42 3.93009 13.7062 9.67645 
362 1 106.42 2.04361 13.8166 11.6059 
385 1 106.42 3.9315 15.7372 11.618 
361 1 106.42 0.196683 11.8868 11.7116 
365 1 106.42 4.28225 11.8848 11.6383 
267 1 106.42 5.87511 12.0024 9.59071 
266 1 106.42 5.91629 13.824 7.85945 
272 1 106.42 8.00658 13.6182 9.99621 
370 1 106.42 9.98752 14.0325 11.6373 
276 1 106.42 11.5472 13.7769 9.76426 
373 1 106.42 11.6317 11.945 11.7546 
274 1 106.42 13.9558 13.7101 8.12524 
295 1 106.42 13.6316 15.5386 10.2889 
277 1 106.42 15.8645 11.8566 7.89866 
297 1 106.42 15.7032 15.6786 8.07352 
280 1 106.42 15.8691 13.5271 9.89833 
264 1 106.42 19.6231 13.752 9.57855 
299 1 106.42 17.7514 15.4413 9.91478 
283 1 106.42 2.01043 16.0032 9.64339 
203 1 106.42 2.13774 19.4439 9.4588 
288 1 106.42 3.89271 17.717 9.67915 
381 1 106.42 19.5819 15.7955 11.5188 
301 1 106.42 0.186546 19.2802 11.4827 
205 1 106.42 4.22816 19.5448 7.80445 
286 1 106.42 6.04351 17.8003 7.93703 
287 1 106.42 6.0733 15.9001 9.70264 
386 1 106.42 5.97279 17.6253 11.5982 
292 1 106.42 7.7977 17.8583 9.78383 
293 1 106.42 11.571 15.8764 7.93942 
291 1 106.42 9.73232 15.7526 9.81025 
289 1 106.42 7.98805 15.8866 7.89586 
290 1 106.42 9.58491 17.9247 7.90143 
390 1 106.42 9.72203 17.5529 11.6069 
217 1 106.42 15.5477 0.0142884 7.89972 
215 1 106.42 13.8201 19.4127 9.72078 
296 1 106.42 11.8849 17.9261 9.99041 
294 1 106.42 13.523 17.5302 8.06583 
394 1 106.42 14.1743 17.8431 11.7321 
284 1 106.42 19.3556 17.6731 9.45965 
298 1 106.42 17.1732 17.7098 7.8692 
300 1 106.42 15.8558 17.4948 9.759 
323 1 106.42 2.02546 3.79069 13.862 
303 1 106.42 1.64368 0.0188567 13.6806 
402 1 106.42 1.90302 1.74662 15.7696 
308 1 106.42 3.8313 1.84277 13.7062 
304 1 106.42 0.112 2.02916 13.6158 
306 1 106.42 5.90884 2.0281 12.0152 
305 1 106.42 4.05546 0.129829 11.913 
325 1 106.42 3.95327 3.82669 11.7852 
327 1 106.42 6.03749 4.01458 13.7849 
406 1 106.42 5.93138 1.88558 15.5013 
310 1 106.42 9.93621 2.13387 12.05 
312 1 106.42 7.98855 1.82059 14.1067 
410 1 106.42 10.1334 1.8091 15.7017 
331 1 106.42 9.93576 3.97351 14.048 
409 1 106.42 8.11998 0.0978718 15.5407 
316 1 106.42 12.0677 1.97736 13.6239 
433 1 106.42 11.8193 3.63162 15.7104 
414 1 106.42 13.9633 2.06004 15.6118 
318 1 106.42 18.0527 1.78845 11.9058 
320 1 106.42 15.9196 1.87808 13.6828 
437 1 106.42 15.7764 3.81605 15.5479 
317 1 106.42 15.818 0.0578789 11.88 
418 1 106.42 17.8937 1.99871 15.6019 
417 1 106.42 15.8534 0.0421702 15.5269 
341 1 106.42 0.105626 7.80337 11.9411 
324 1 106.42 0.142961 5.77764 13.6215 
328 1 106.42 3.84481 5.64423 13.7985 
343 1 106.42 2.1166 7.5625 13.7187 
345 1 106.42 3.9895 7.71306 11.7392 
332 1 106.42 7.56156 5.98206 13.8739 
329 1 106.42 7.79206 4.04831 11.8417 
426 1 106.42 5.83717 5.97445 15.7522 
336 1 106.42 11.5537 5.97544 13.9788 
353 1 106.42 11.8142 7.75082 12.0974 
430 1 106.42 9.59123 5.83152 15.5407 
335 1 106.42 13.7155 4.16179 13.4297 
355 1 106.42 14.0442 7.70797 13.6594 
501 2 1.01 14.6506 5.36178 11.9592 
339 1 106.42 17.7025 4.10703 13.5769 
340 1 106.42 15.8753 5.81561 13.6668 
359 1 106.42 17.578 7.65197 13.5494 
441 1 106.42 0.0928665 7.88117 15.5132 
342 1 106.42 2.02031 9.48345 11.8366 
363 1 106.42 1.90215 11.7846 13.5895 
348 1 106.42 3.86037 9.7758 13.7549 
465 1 106.42 3.75731 11.6774 15.671 
349 1 106.42 7.48355 8.04634 11.9693 
347 1 106.42 5.76829 8.01471 13.8298 
346 1 106.42 5.60429 9.84193 11.7016 
445 1 106.42 4.00165 7.94362 15.3872 
351 1 106.42 9.50482 8.00055 13.6645 
352 1 106.42 7.90555 10.0752 13.8609 
453 1 106.42 11.5616 8.08527 15.6474 
356 1 106.42 11.5266 9.82845 13.9068 
354 1 106.42 13.4711 9.72832 11.8424 
375 1 106.42 13.7666 11.5603 13.8201 
454 1 106.42 13.8383 9.8512 15.4496 
377 1 106.42 15.7741 11.5419 12.0552 
344 1 106.42 19.4789 9.87906 13.6907 
360 1 106.42 15.8669 9.68431 13.9154 
461 1 106.42 19.5867 11.896 15.658 
368 1 106.42 3.96334 13.5913 13.5958 
364 1 106.42 0.10739 13.6795 13.8376 
366 1 106.42 6.02029 13.7696 11.793 
367 1 106.42 5.86148 11.9286 13.7734 
466 1 106.42 5.83837 13.8104 15.5491 
372 1 106.42 8.08857 13.6926 13.5853 
371 1 106.42 10.0346 11.8416 13.8867 
470 1 106.42 10.0104 13.7468 15.834 
391 1 106.42 10.058 15.7422 13.8373 
374 1 106.42 14.101 13.4972 11.8127 
376 1 106.42 12.0576 13.8026 13.5762 
380 1 106.42 15.6941 13.6855 13.862 
378 1 106.42 17.6068 13.5465 11.8028 
379 1 106.42 17.7869 11.724 13.8112 
478 1 106.42 17.5689 13.8387 15.6374 
382 1 106.42 2.11871 17.6393 11.7684 
383 1 106.42 2.35087 15.7834 13.7743 
384 1 106.42 0.182286 17.3648 13.6964 
482 1 106.42 2.04106 17.7557 15.3598 
389 1 106.42 7.88827 15.7787 11.8701 
307 1 106.42 6.06938 19.5236 13.8622 
387 1 106.42 6.02069 15.6933 13.7936 
388 1 106.42 4.27435 17.8844 13.7132 
392 1 106.42 8.06858 17.4812 13.9259 
311 1 106.42 9.85803 0.0861857 13.3226 
313 1 106.42 12.1221 19.419 11.7838 
397 1 106.42 15.6828 15.6745 11.9777 
393 1 106.42 11.8579 15.8634 11.8962 
396 1 106.42 12.0425 17.7228 13.6125 
395 1 106.42 13.694 15.7219 13.6502 
315 1 106.42 13.9699 19.6117 13.7945 
398 1 106.42 17.6954 17.6773 11.9204 
319 1 106.42 17.9434 19.4072 13.9435 
400 1 106.42 15.6929 17.5251 13.8804 
399 1 106.42 17.8308 15.6799 13.8587 
25 1 106.42 3.88999 3.79178 19.5532 
404 1 106.42 0.219902 1.77371 17.639 
421 1 106.42 0.353914 3.74287 15.8978 
5 1 106.42 3.93419 0.0991713 0.0270202 
408 1 106.42 4.00336 1.89431 17.6551 
412 1 106.42 7.68714 1.92054 17.6928 
407 1 106.42 5.93828 0.0757872 17.4067 
425 1 106.42 3.90506 3.62407 15.7607 
427 1 106.42 5.88673 3.74702 17.5799 
10 1 106.42 9.77604 1.96666 19.4042 
411 1 106.42 9.84507 19.5209 17.7008 
413 1 106.42 11.953 0.250906 15.7492 
416 1 106.42 11.9865 1.69346 17.9102 
435 1 106.42 13.5513 3.76948 17.7052 
420 1 106.42 15.447 2.07456 17.6504 
18 1 106.42 17.5906 1.98185 0.0200323 
419 1 106.42 17.6139 0.228862 17.5672 
422 1 106.42 1.93582 5.88165 15.6285 
423 1 106.42 2.09546 3.98812 17.9767 
424 1 106.42 0.165635 5.8361 17.9273 
443 1 106.42 1.75873 7.70717 17.7075 
429 1 106.42 7.65184 4.14337 15.7288 
428 1 106.42 4.01941 6.05528 17.5867 
29 1 106.42 7.82011 3.88951 19.4814 
431 1 106.42 9.84209 3.86515 17.2499 
432 1 106.42 7.7791 5.80778 17.7363 
30 1 106.42 9.7244 5.88487 19.539 
436 1 106.42 11.6487 5.97103 17.4674 
451 1 106.42 9.68836 7.74858 17.3461 
33 1 106.42 11.8072 4.20616 0.0181124 
37 1 106.42 15.5737 4.16842 19.5401 
34 1 106.42 13.7121 5.96504 0.0159672 
434 1 106.42 13.6304 5.78929 15.6689 
440 1 106.42 15.5451 5.64445 17.3859 
57 1 106.42 15.7076 7.49851 19.3907 
38 1 106.42 17.7728 5.84652 19.6051 
438 1 106.42 18.0891 5.50295 15.7543 
439 1 106.42 17.8012 3.84232 17.7619 
457 1 106.42 15.73 7.59516 15.7225 
459 1 106.42 17.8419 7.39863 17.404 
45 1 106.42 3.91225 7.91269 19.6254 
442 1 106.42 1.79266 9.70866 15.6651 
42 1 106.42 2.14677 9.75313 19.4444 
444 1 106.42 19.5522 9.54332 17.5915 
448 1 106.42 3.92348 9.54424 17.5272 
61 1 106.42 0.191937 11.6168 0.0454041 
463 1 106.42 1.74558 11.6087 17.5139 
46 1 106.42 5.63519 10.0195 19.4025 
449 1 106.42 7.61191 8.12757 15.8207 
446 1 106.42 5.89086 10.1937 15.834 
447 1 106.42 5.97597 7.75316 17.9529 
452 1 106.42 7.71495 10.0985 17.7259 
50 1 106.42 9.76626 9.62092 19.5875 
450 1 106.42 9.60816 10.1157 15.8658 
456 1 106.42 11.7744 9.60097 17.4777 
471 1 106.42 9.72127 11.9037 17.6614 
54 1 106.42 13.7206 9.70644 19.6201 
473 1 106.42 11.811 11.6558 16.2697 
455 1 106.42 13.6814 7.79096 17.5241 
475 1 106.42 13.7821 11.6107 17.8695 
460 1 106.42 15.5002 9.51897 17.6686 
458 1 106.42 17.6566 9.76258 15.933 
58 1 106.42 17.5544 9.77758 19.3812 
479 1 106.42 17.7626 11.7878 17.5945 
477 1 106.42 15.7434 11.7123 15.7106 
462 1 106.42 2.06174 13.75 15.8598 
481 1 106.42 0.150073 15.7385 15.8579 
62 1 106.42 1.6283 13.7431 19.6149 
464 1 106.42 19.5794 13.5734 17.6423 
468 1 106.42 4.16083 13.9495 17.4119 
469 1 106.42 7.69147 12.0514 15.8475 
467 1 106.42 5.24466 11.799 17.6841 
66 1 106.42 5.7364 13.6647 19.591 
472 1 106.42 7.82459 13.6235 17.6468 
476 1 106.42 11.8333 13.8593 17.8896 
489 1 106.42 7.99974 15.2561 15.6233 
491 1 106.42 9.81199 15.5705 17.6372 
474 1 106.42 13.7909 13.5276 15.7231 
495 1 106.42 13.6617 15.7814 17.7446 
480 1 106.42 15.6542 13.7133 17.9529 
497 1 106.42 15.4464 15.4151 15.8155 
81 1 106.42 19.4866 15.5045 19.5256 
78 1 106.42 17.8166 13.3783 19.5831 
403 1 106.42 2.00933 19.5016 17.8144 
483 1 106.42 2.04859 16.0161 17.6172 
82 1 106.42 2.08926 17.7728 0.0240511 
485 1 106.42 3.85923 15.833 15.8472 
405 1 106.42 4.01319 19.5888 15.7147 
486 1 106.42 5.93088 17.5756 15.7346 
488 1 106.42 4.17504 17.7894 17.846 
487 1 106.42 6.15884 15.8214 17.7163 
93 1 106.42 11.7177 15.9596 0.0727184 
9 1 106.42 7.83894 19.4314 0.0655169 
492 1 106.42 8.02494 17.4882 17.7197 
490 1 106.42 10.0492 18.0705 15.6035 
496 1 106.42 11.776 17.995 17.7569 
415 1 106.42 13.8941 0.0456273 17.3365 
493 1 106.42 11.9232 15.6626 15.7052 
494 1 106.42 13.7399 17.4399 15.73 
401 1 106.42 19.5508 19.5102 15.8852 
498 1 106.42 17.7116 17.5493 15.7437 
499 1 106.42 17.5248 15.7288 17.7521 
484 1 106.42 19.5998 17.7366 17.7321 
500 1 106.42 15.8227 17.7572 17.5853 
