ITEM: TIMESTEP
22100
ITEM: NUMBER OF ATOMS
501
ITEM: BOX BOUNDS pp pp pp
0.0000000000000000e+00 1.9629018200000001e+01
0.0000000000000000e+00 1.9629018200000001e+01
0.0000000000000000e+00 1.9629018200000001e+01
ITEM: ATOMS id type mass x y z 
2 1 106.42 1.8403 1.92674 19.5356 
4 1 106.42 0.0180907 1.98847 2.10142 
3 1 106.42 2.2261 19.42 2.01537 
121 1 106.42 19.6325 4.11481 3.62346 
8 1 106.42 3.70462 1.81886 1.78385 
27 1 106.42 5.8693 3.85507 2.10189 
7 1 106.42 5.78501 19.4962 2.11884 
29 1 106.42 7.8383 4.02183 0.207719 
12 1 106.42 7.74869 1.80625 1.78983 
129 1 106.42 7.82221 3.83669 4.0156 
11 1 106.42 9.95513 0.0785118 1.90313 
10 1 106.42 9.52583 1.97521 0.0536341 
31 1 106.42 9.85457 3.85291 2.19462 
33 1 106.42 11.886 3.79003 19.4599 
16 1 106.42 11.7592 1.92378 1.91817 
20 1 106.42 15.5388 1.99053 1.97574 
15 1 106.42 13.7761 0.0517768 2.22715 
37 1 106.42 15.6962 3.83498 19.5304 
18 1 106.42 17.7305 1.88142 19.483 
39 1 106.42 17.6295 3.7539 2.00747 
118 1 106.42 17.6389 1.87901 3.90244 
19 1 106.42 17.4287 0.319008 2.03847 
23 1 106.42 1.94214 3.81844 1.87743 
24 1 106.42 19.5142 5.75141 1.75676 
43 1 106.42 2.11973 7.8015 2.00035 
141 1 106.42 19.4197 7.8658 3.80816 
122 1 106.42 2.33211 5.95718 3.64649 
28 1 106.42 4.08372 5.72094 1.76354 
126 1 106.42 5.99505 5.79423 3.99023 
32 1 106.42 7.74374 5.80518 2.02538 
130 1 106.42 9.56344 5.99041 3.98935 
36 1 106.42 11.7126 5.85116 1.90311 
51 1 106.42 9.78125 7.72405 1.82315 
35 1 106.42 13.5133 3.84014 2.07896 
40 1 106.42 15.6091 5.74111 1.90844 
55 1 106.42 13.9868 7.84597 2.11625 
134 1 106.42 13.5606 5.89443 3.95918 
157 1 106.42 15.8923 7.92868 3.80231 
153 1 106.42 11.2868 7.95948 3.85188 
138 1 106.42 17.5884 5.91931 3.85152 
38 1 106.42 17.6937 5.55266 19.5084 
142 1 106.42 2.16391 9.56411 3.98642 
63 1 106.42 1.83773 11.85 2.11859 
42 1 106.42 1.93031 9.72039 19.4458 
48 1 106.42 3.64897 9.93875 1.78962 
145 1 106.42 4.05915 7.71974 3.86639 
47 1 106.42 5.92178 7.95374 1.80297 
146 1 106.42 5.87727 9.5023 3.84096 
67 1 106.42 6.01702 11.7287 1.77052 
165 1 106.42 4.02662 11.5229 3.61648 
46 1 106.42 5.82063 9.84108 19.5492 
149 1 106.42 7.83932 7.99434 3.99215 
52 1 106.42 7.79511 9.79385 2.00151 
56 1 106.42 12.07 9.42925 1.76596 
75 1 106.42 13.9855 11.7845 1.87842 
57 1 106.42 15.7827 7.72085 0.0672594 
59 1 106.42 17.6435 7.79432 1.95171 
60 1 106.42 15.8361 9.88118 1.91911 
44 1 106.42 0.0613752 10.0017 2.12941 
79 1 106.42 17.5235 11.9815 1.98536 
62 1 106.42 1.70806 13.925 19.5633 
68 1 106.42 3.71721 13.9029 1.96581 
72 1 106.42 7.82282 13.8053 1.87353 
166 1 106.42 5.72306 13.4288 4.00803 
87 1 106.42 5.64214 15.6097 2.12422 
65 1 106.42 3.82786 12.1031 0.234313 
69 1 106.42 7.94258 11.7133 19.4586 
71 1 106.42 9.79153 11.8102 1.8256 
170 1 106.42 9.66412 14.0164 3.74617 
76 1 106.42 11.731 13.7604 1.87512 
80 1 106.42 15.754 13.8566 2.13759 
174 1 106.42 13.4961 13.6744 3.92799 
173 1 106.42 11.7077 11.7591 3.65912 
73 1 106.42 11.8458 11.6347 19.507 
161 1 106.42 0.0273873 11.8699 3.9087 
61 1 106.42 0.16769 11.9858 0.270419 
64 1 106.42 19.4404 14.0454 1.9811 
81 1 106.42 19.5408 15.9607 19.6185 
83 1 106.42 1.9775 15.7899 2.10509 
182 1 106.42 1.86247 17.5935 4.08415 
82 1 106.42 1.9256 17.5379 0.0383894 
88 1 106.42 4.02416 17.6774 2.23743 
5 1 106.42 3.75778 19.5613 19.4278 
85 1 106.42 3.85241 15.4832 0.0617921 
92 1 106.42 8.17132 17.7185 1.98007 
189 1 106.42 7.81815 15.8408 3.74671 
86 1 106.42 5.81064 17.5058 0.313354 
91 1 106.42 9.953 15.7479 1.62782 
96 1 106.42 11.8578 17.8809 1.81984 
193 1 106.42 11.8199 15.7268 3.76279 
109 1 106.42 7.90459 0.0636819 4.04801 
95 1 106.42 13.7464 15.5217 1.87932 
100 1 106.42 15.7853 17.8172 2.14576 
194 1 106.42 13.5312 17.7436 4.10887 
181 1 106.42 0.0245656 15.484 4.17382 
99 1 106.42 17.4764 15.7225 1.8996 
84 1 106.42 19.5081 17.6636 1.96446 
101 1 106.42 19.6283 19.4661 3.78475 
1 1 106.42 19.5827 0.0592685 0.320062 
98 1 106.42 17.5555 17.5307 0.310007 
102 1 106.42 1.96598 2.06957 3.8056 
202 1 106.42 1.84986 1.854 7.9469 
104 1 106.42 19.5746 2.0562 5.74204 
106 1 106.42 5.69254 1.92312 3.95844 
108 1 106.42 3.7215 2.10197 5.82333 
206 1 106.42 5.91198 1.92282 7.87142 
107 1 106.42 5.91595 0.100522 6.03838 
112 1 106.42 7.79787 1.92042 5.88712 
110 1 106.42 9.86337 1.9848 4.03258 
111 1 106.42 10.019 19.4096 5.91163 
131 1 106.42 9.79154 4.06694 6.02754 
113 1 106.42 11.8322 0.244706 4.0065 
210 1 106.42 9.65774 1.69984 7.60752 
116 1 106.42 11.8073 2.2379 6.09271 
114 1 106.42 13.5646 2.00949 4.27554 
120 1 106.42 15.9042 2.03619 5.87416 
115 1 106.42 13.535 -0.0130423 6.1551 
119 1 106.42 17.7733 19.5555 5.85163 
123 1 106.42 1.88461 4.07088 5.7945 
128 1 106.42 3.90658 5.98027 5.78316 
225 1 106.42 3.65252 4.09348 7.80637 
125 1 106.42 3.96145 3.91765 4.10068 
127 1 106.42 5.73257 3.87415 5.8553 
147 1 106.42 6.00462 7.73738 6.0206 
226 1 106.42 5.65543 5.73549 7.8814 
133 1 106.42 11.7159 4.07056 3.99422 
132 1 106.42 7.80281 5.85981 6.07376 
136 1 106.42 11.5718 6.17792 5.83289 
137 1 106.42 15.5549 4.07782 3.76035 
135 1 106.42 13.8245 4.18028 5.93756 
234 1 106.42 13.6006 6.21542 7.84089 
155 1 106.42 13.623 7.76696 5.76246 
237 1 106.42 15.817 4.07264 7.50587 
139 1 106.42 17.8678 3.77059 5.67689 
124 1 106.42 0.0879323 6.01421 5.44607 
140 1 106.42 15.65 6.10269 5.72313 
238 1 106.42 17.7958 5.91822 7.36275 
143 1 106.42 1.69714 7.73693 6.03389 
163 1 106.42 2.18922 11.5393 5.72254 
144 1 106.42 0.207343 9.7929 5.7117 
148 1 106.42 4.00095 9.45473 6.1611 
152 1 106.42 7.6149 9.83309 5.92157 
167 1 106.42 5.9445 11.8008 5.81286 
169 1 106.42 7.81072 11.7226 3.82412 
150 1 106.42 9.77342 9.94906 3.76851 
151 1 106.42 9.63079 8.0076 6.17336 
250 1 106.42 9.76801 10.1773 7.74744 
253 1 106.42 11.7371 7.81285 8.06493 
156 1 106.42 11.5043 9.71978 5.86015 
154 1 106.42 13.6151 9.65438 3.81667 
254 1 106.42 13.5091 9.95565 7.65629 
160 1 106.42 15.6612 10.1565 5.80792 
277 1 106.42 15.6981 11.8987 7.95872 
257 1 106.42 15.4831 8.21654 7.60906 
159 1 106.42 17.5184 8.16324 5.73334 
158 1 106.42 17.6537 10.3021 3.93558 
258 1 106.42 17.8677 9.71801 7.88437 
241 1 106.42 0.134634 7.53821 7.91274 
162 1 106.42 2.09731 13.9296 3.90284 
185 1 106.42 4.17778 15.6562 4.02153 
164 1 106.42 0.141507 13.7123 5.88152 
183 1 106.42 1.84908 15.6275 5.7882 
168 1 106.42 4.17998 13.5745 5.86361 
262 1 106.42 2.13237 13.6277 7.76735 
172 1 106.42 7.78254 13.7321 5.79921 
187 1 106.42 6.07383 15.788 5.65786 
171 1 106.42 9.98355 12.1191 5.76239 
176 1 106.42 11.7384 13.9209 5.71401 
197 1 106.42 15.8144 15.6693 4.02193 
175 1 106.42 13.4215 11.7842 5.81041 
195 1 106.42 13.7186 15.6775 5.93561 
274 1 106.42 13.7865 13.9457 8.00999 
177 1 106.42 15.2747 12.1058 4.00019 
178 1 106.42 17.5444 13.7962 4.16291 
179 1 106.42 17.7426 11.873 5.82612 
180 1 106.42 15.6508 13.9517 6.0142 
199 1 106.42 17.8599 15.9448 6.05547 
105 1 106.42 4.04894 0.0430795 4.1183 
281 1 106.42 -0.00984437 15.737 8.2259 
103 1 106.42 1.89566 19.6369 5.87381 
184 1 106.42 0.126456 17.6231 6.11123 
186 1 106.42 6.10773 17.8352 4.0038 
188 1 106.42 3.85379 17.4498 5.84946 
286 1 106.42 5.85148 17.5227 7.84505 
209 1 106.42 7.9382 19.6249 7.94128 
213 1 106.42 11.7924 19.597 8.06214 
191 1 106.42 9.67014 15.8064 5.72181 
190 1 106.42 9.87288 17.7143 3.88633 
192 1 106.42 7.78291 17.8491 6.02491 
117 1 106.42 15.5813 19.6251 4.21601 
196 1 106.42 11.5565 17.5948 5.78639 
294 1 106.42 13.758 17.3904 7.83498 
198 1 106.42 17.6682 17.5016 3.87828 
200 1 106.42 15.5436 17.6247 5.91392 
204 1 106.42 0.104329 2.1849 9.83221 
223 1 106.42 2.06614 4.04354 10.0366 
321 1 106.42 19.5008 3.77904 11.8471 
302 1 106.42 2.33003 2.06726 11.8337 
208 1 106.42 4.02047 2.02293 9.53869 
212 1 106.42 8.03589 2.03599 9.74287 
306 1 106.42 5.97143 2.00265 11.5593 
211 1 106.42 9.95596 0.161715 10.1166 
216 1 106.42 11.6725 2.0901 9.78258 
214 1 106.42 13.7749 2.04893 7.80746 
215 1 106.42 13.7748 19.4066 9.67949 
220 1 106.42 15.7673 2.00851 9.58389 
314 1 106.42 13.904 2.03822 11.7512 
221 1 106.42 19.4715 4.08426 7.61857 
218 1 106.42 17.6109 1.9343 7.72306 
318 1 106.42 17.659 2.04873 11.6572 
239 1 106.42 17.478 3.98224 9.70317 
222 1 106.42 2.1869 5.97816 8.11773 
243 1 106.42 2.01886 8.00457 9.76009 
341 1 106.42 0.0843224 7.76778 11.8622 
228 1 106.42 4.0299 6.05093 10.2001 
227 1 106.42 5.77483 4.03329 9.6646 
232 1 106.42 7.5827 6.04137 9.85125 
229 1 106.42 7.63665 3.97404 7.73028 
230 1 106.42 9.73288 5.73223 8.21023 
233 1 106.42 11.788 4.05647 7.99951 
231 1 106.42 9.6225 3.80576 9.91345 
236 1 106.42 11.5544 5.94016 10.0671 
235 1 106.42 13.8993 4.14127 9.51159 
255 1 106.42 13.877 7.77523 10.0215 
224 1 106.42 0.158935 5.85157 9.90484 
240 1 106.42 16.0438 6.16687 9.4197 
259 1 106.42 17.9074 7.67627 10.0064 
337 1 106.42 15.5107 3.98971 11.5796 
245 1 106.42 4.12241 7.78952 8.05274 
242 1 106.42 1.90918 9.93406 7.73663 
261 1 106.42 0.166398 11.6972 7.79173 
248 1 106.42 3.88078 9.82885 9.85248 
365 1 106.42 4.17325 11.6507 11.9848 
342 1 106.42 1.74223 9.68189 11.6968 
249 1 106.42 7.82265 7.91532 7.869 
246 1 106.42 5.92283 10.0478 7.82841 
247 1 106.42 6.1343 8.14447 9.93402 
252 1 106.42 7.74845 9.89853 9.98468 
251 1 106.42 9.70825 7.88024 9.8359 
271 1 106.42 9.60199 11.8803 9.96514 
256 1 106.42 11.5362 10.1646 9.76829 
353 1 106.42 11.8985 8.0204 11.6967 
275 1 106.42 13.6577 11.5837 9.75406 
354 1 106.42 14.0467 9.63156 11.7186 
244 1 106.42 19.4936 9.80722 9.77959 
260 1 106.42 15.7131 9.58605 9.74583 
279 1 106.42 17.6852 11.7068 9.80176 
361 1 106.42 19.486 11.8229 11.7377 
358 1 106.42 17.4609 9.9028 11.6352 
263 1 106.42 1.84151 11.8789 10.2178 
283 1 106.42 2.07355 15.1563 9.90509 
265 1 106.42 3.69225 11.5857 7.80955 
267 1 106.42 6.05223 11.8358 9.70785 
269 1 106.42 7.84567 11.8451 7.79007 
268 1 106.42 3.94968 13.5495 9.89593 
266 1 106.42 6.04341 13.9969 7.74561 
272 1 106.42 7.72036 13.8224 9.87145 
369 1 106.42 7.81705 11.8327 12.0134 
385 1 106.42 3.74758 15.3777 11.7429 
270 1 106.42 9.74504 13.8353 7.81362 
273 1 106.42 11.7362 12.1717 7.40237 
370 1 106.42 9.78796 13.8302 11.8673 
393 1 106.42 11.7253 15.5899 12.1367 
291 1 106.42 9.95793 15.5301 10.0815 
389 1 106.42 7.85546 15.7671 11.859 
293 1 106.42 11.7267 15.5594 7.94242 
276 1 106.42 11.8704 13.6311 9.82008 
295 1 106.42 13.6561 15.7766 9.9701 
297 1 106.42 16.112 15.863 7.85113 
280 1 106.42 15.7523 13.8519 9.87664 
278 1 106.42 17.7686 13.7116 7.88015 
264 1 106.42 19.5807 13.6737 9.85027 
205 1 106.42 3.7991 19.6045 7.72313 
282 1 106.42 2.06388 17.3599 7.74489 
201 1 106.42 0.141851 0.0667188 7.85823 
203 1 106.42 2.2971 19.598 9.94236 
284 1 106.42 0.144835 17.6207 9.94868 
207 1 106.42 5.90942 19.5931 9.69026 
305 1 106.42 4.01118 19.458 11.7445 
285 1 106.42 4.1201 15.6391 7.8364 
289 1 106.42 8.1063 15.7708 8.04166 
288 1 106.42 3.60948 17.3247 9.81736 
287 1 106.42 5.84543 15.7906 9.89833 
292 1 106.42 8.17238 17.611 9.70045 
290 1 106.42 10.1909 17.5658 8.02616 
309 1 106.42 7.85833 19.5707 11.8979 
296 1 106.42 11.9551 17.6005 10.0135 
300 1 106.42 15.786 17.5793 9.51983 
217 1 106.42 15.6013 19.5998 7.74492 
394 1 106.42 13.7898 17.7469 11.6414 
317 1 106.42 15.714 19.6182 11.5831 
298 1 106.42 17.7129 17.8589 7.8726 
299 1 106.42 17.6008 15.6859 9.93953 
219 1 106.42 17.8165 0.0955371 9.92486 
398 1 106.42 17.6518 17.6919 11.8947 
304 1 106.42 19.5279 1.95671 13.6206 
323 1 106.42 1.91561 3.8661 13.8168 
421 1 106.42 0.118615 3.90548 15.6997 
425 1 106.42 4.0756 4.04163 15.698 
402 1 106.42 1.90795 2.04924 15.6327 
308 1 106.42 4.19336 2.04634 13.9388 
312 1 106.42 7.72933 1.9279 13.7256 
307 1 106.42 5.82583 19.5517 13.7999 
409 1 106.42 7.66375 0.251493 15.6199 
310 1 106.42 9.62875 2.07844 11.9961 
316 1 106.42 11.6205 1.99713 13.598 
410 1 106.42 9.76173 1.9659 15.5672 
313 1 106.42 11.6385 19.5497 11.8871 
333 1 106.42 11.7304 4.02155 11.7845 
501 2 1.01 13.4261 2.48361 13.8954 
335 1 106.42 13.6097 4.21192 13.7618 
417 1 106.42 15.7914 0.100685 15.4745 
320 1 106.42 15.5205 1.95854 13.569 
418 1 106.42 17.9856 1.91975 15.4659 
339 1 106.42 17.6006 3.80061 13.7343 
437 1 106.42 15.9685 3.79871 15.5759 
322 1 106.42 1.85595 5.83103 11.6242 
324 1 106.42 0.132978 5.7709 13.9139 
422 1 106.42 2.09055 5.97755 15.6345 
328 1 106.42 3.75722 5.87551 13.6655 
325 1 106.42 4.17115 3.82257 11.8598 
329 1 106.42 7.48429 3.98904 11.7047 
327 1 106.42 5.89507 4.06944 13.8385 
326 1 106.42 5.74517 6.05014 11.9052 
332 1 106.42 7.91152 5.98883 13.8051 
330 1 106.42 9.67721 5.85837 11.5737 
349 1 106.42 7.82394 7.74375 11.9728 
331 1 106.42 9.69521 3.97483 13.7221 
336 1 106.42 11.9518 6.1574 13.7661 
351 1 106.42 9.92213 7.83353 13.5982 
334 1 106.42 13.7242 5.76442 11.7392 
355 1 106.42 14.0781 7.73866 13.9547 
357 1 106.42 15.7358 7.41005 11.9407 
338 1 106.42 17.5672 5.5106 11.6868 
340 1 106.42 15.5781 5.67559 13.9588 
438 1 106.42 17.9144 5.91035 15.7173 
457 1 106.42 15.9595 7.91943 15.6354 
343 1 106.42 2.12984 7.66499 13.7417 
348 1 106.42 3.90806 9.71595 13.8487 
344 1 106.42 0.212104 9.85137 13.7827 
345 1 106.42 3.96544 8.02732 11.9737 
346 1 106.42 5.84831 9.86159 12.0798 
347 1 106.42 5.83212 7.77014 14.0318 
350 1 106.42 9.67387 9.68848 11.7451 
352 1 106.42 7.71007 9.73355 13.6219 
356 1 106.42 11.7104 9.48792 13.8687 
371 1 106.42 9.69381 11.8376 13.6444 
373 1 106.42 11.6992 11.7228 11.9217 
360 1 106.42 15.824 9.80672 13.7472 
473 1 106.42 11.7428 11.7618 15.5462 
454 1 106.42 13.7694 9.94693 15.4653 
359 1 106.42 17.6818 7.86739 13.6037 
379 1 106.42 17.7383 11.5082 13.5352 
458 1 106.42 17.6436 9.82695 15.7826 
362 1 106.42 1.66578 13.6227 11.9967 
363 1 106.42 1.94419 11.6529 13.8949 
462 1 106.42 1.83215 13.5157 15.726 
485 1 106.42 4.07985 15.6193 15.8093 
367 1 106.42 5.98776 11.8837 14.0517 
366 1 106.42 6.02371 13.8759 11.8903 
368 1 106.42 3.7423 13.6726 13.7162 
372 1 106.42 7.95069 13.6509 13.7877 
376 1 106.42 11.7378 13.8207 13.7622 
391 1 106.42 9.57457 15.8088 13.7157 
470 1 106.42 9.98751 13.9545 15.5914 
375 1 106.42 13.7103 11.86 13.8149 
377 1 106.42 15.4539 11.7728 11.578 
374 1 106.42 13.7171 13.8661 11.7794 
395 1 106.42 13.8945 15.8098 13.7705 
380 1 106.42 15.9895 13.5382 13.6901 
364 1 106.42 19.6065 13.4959 13.9619 
378 1 106.42 17.5339 13.7183 11.6866 
381 1 106.42 19.505 15.6468 11.9738 
397 1 106.42 15.6068 15.694 11.7162 
399 1 106.42 17.4157 15.9338 13.5503 
382 1 106.42 2.04535 17.7072 11.9594 
383 1 106.42 1.9211 15.4487 13.8549 
303 1 106.42 2.20984 19.6257 13.606 
482 1 106.42 1.79562 17.4348 15.6877 
388 1 106.42 4.06482 17.5882 13.5743 
386 1 106.42 6.08545 17.6344 11.5903 
387 1 106.42 5.86824 15.6436 13.697 
486 1 106.42 5.47384 17.8458 15.9269 
390 1 106.42 9.64322 17.4835 11.571 
311 1 106.42 9.64701 19.4117 13.5923 
392 1 106.42 7.6831 17.7088 13.6916 
315 1 106.42 13.436 0.0192976 13.7918 
396 1 106.42 11.7092 17.5213 13.7916 
494 1 106.42 13.8583 17.6357 15.8481 
493 1 106.42 11.9219 15.5931 15.6429 
301 1 106.42 0.19556 0.127223 11.5747 
319 1 106.42 17.731 0.101588 13.7702 
384 1 106.42 19.5296 17.6226 13.7045 
400 1 106.42 15.4803 17.818 13.568 
498 1 106.42 17.5869 17.6571 15.5896 
497 1 106.42 15.8363 15.6688 15.5321 
25 1 106.42 4.11655 3.89351 19.5234 
423 1 106.42 2.0498 3.97864 17.7389 
21 1 106.42 19.594 3.65494 19.3508 
403 1 106.42 1.76867 0.0790827 17.784 
406 1 106.42 5.70467 2.03443 15.7484 
408 1 106.42 3.93124 2.01027 17.744 
6 1 106.42 5.82222 1.74414 0.0991488 
427 1 106.42 5.95415 3.95532 17.8022 
429 1 106.42 7.60268 4.02853 15.8089 
9 1 106.42 8.12631 19.2694 19.5572 
412 1 106.42 7.77077 2.12381 17.7447 
416 1 106.42 11.9199 1.78894 17.6467 
431 1 106.42 9.79295 3.82833 17.5025 
411 1 106.42 9.73873 0.220553 17.4165 
17 1 106.42 15.8398 19.5206 0.0849703 
14 1 106.42 13.8218 1.98956 19.404 
414 1 106.42 13.4535 1.98515 15.4432 
413 1 106.42 11.6613 19.5123 15.6429 
404 1 106.42 0.0234335 1.95699 17.5011 
420 1 106.42 15.9181 1.81863 17.6741 
419 1 106.42 17.6255 19.2415 17.7282 
439 1 106.42 17.5908 4.05801 17.6359 
45 1 106.42 3.78928 7.91672 0.0881616 
22 1 106.42 1.96216 5.59769 19.6532 
428 1 106.42 3.71874 6.02182 17.5966 
41 1 106.42 19.5012 7.84069 0.103729 
424 1 106.42 0.11323 6.02089 17.6489 
26 1 106.42 5.93477 5.81129 19.5491 
426 1 106.42 5.59658 5.87103 15.5663 
432 1 106.42 7.74509 5.96334 17.6388 
30 1 106.42 9.80504 5.74197 19.4885 
430 1 106.42 9.96618 5.96876 15.8664 
436 1 106.42 11.9445 5.8576 17.8137 
434 1 106.42 13.6128 6.07514 15.7861 
433 1 106.42 11.6788 4.14657 15.7534 
34 1 106.42 13.7383 5.78688 19.5621 
453 1 106.42 11.7777 8.00051 15.9468 
53 1 106.42 11.8524 7.6509 -0.0060217 
435 1 106.42 14.0097 3.75398 17.309 
455 1 106.42 13.8904 7.64912 17.792 
440 1 106.42 15.9477 6.00371 17.5099 
445 1 106.42 3.93754 8.04151 15.6344 
442 1 106.42 2.16417 9.94198 15.9537 
443 1 106.42 1.97777 7.95748 17.4384 
448 1 106.42 4.15293 9.80181 17.9248 
461 1 106.42 0.017997 11.626 15.7714 
447 1 106.42 5.98773 7.64094 17.339 
49 1 106.42 7.93286 7.60441 0.189779 
446 1 106.42 5.97178 9.80997 15.8806 
467 1 106.42 5.73807 11.7696 17.7532 
451 1 106.42 9.88975 7.83729 17.7672 
449 1 106.42 7.9692 7.5665 15.7168 
452 1 106.42 7.96699 9.70153 17.7893 
50 1 106.42 9.62826 9.82259 0.110119 
450 1 106.42 9.83323 9.63004 15.4846 
469 1 106.42 7.89901 11.6798 15.7946 
54 1 106.42 13.7654 9.90011 0.126294 
77 1 106.42 15.6709 11.7343 19.538 
456 1 106.42 11.7761 9.91209 17.6949 
475 1 106.42 13.956 11.7202 17.5339 
460 1 106.42 15.6066 9.68487 17.632 
441 1 106.42 19.6235 7.78746 15.6594 
444 1 106.42 0.11449 9.70989 17.6201 
477 1 106.42 15.9853 11.8963 15.6984 
58 1 106.42 17.7053 10.1439 0.252469 
459 1 106.42 17.6464 7.80346 17.8482 
479 1 106.42 17.8543 11.6706 17.6652 
463 1 106.42 2.16202 11.8891 17.8706 
464 1 106.42 19.433 13.896 17.827 
483 1 106.42 1.89628 15.5286 17.6797 
66 1 106.42 6.03184 13.6952 19.5504 
465 1 106.42 4.04195 12.0201 15.8664 
468 1 106.42 4.11546 13.9041 17.7514 
466 1 106.42 6.05407 13.928 15.9408 
487 1 106.42 6.09999 15.9291 17.906 
489 1 106.42 7.36176 16.1081 15.6401 
70 1 106.42 10.1533 13.5122 19.551 
472 1 106.42 8.31273 13.541 17.5032 
471 1 106.42 10.0777 11.5917 17.3652 
491 1 106.42 9.98818 15.7609 17.57 
89 1 106.42 7.93769 15.4829 0.0523756 
74 1 106.42 13.6695 13.6001 19.5451 
474 1 106.42 13.9025 13.7328 15.6417 
476 1 106.42 11.8597 13.5222 17.5055 
495 1 106.42 13.7686 15.7584 17.5273 
78 1 106.42 17.471 13.5192 0.0667508 
481 1 106.42 19.5187 15.7276 15.7987 
480 1 106.42 15.6792 13.9576 17.5217 
478 1 106.42 17.7247 13.8471 15.6123 
401 1 106.42 0.234552 19.3536 15.7216 
484 1 106.42 0.102532 17.5613 17.7645 
405 1 106.42 3.65694 19.5221 15.8241 
488 1 106.42 3.87699 17.4399 17.8747 
407 1 106.42 5.9355 0.197642 17.7501 
492 1 106.42 7.7818 17.6863 17.448 
90 1 106.42 9.9961 17.6211 19.1187 
490 1 106.42 9.85648 17.6018 15.78 
415 1 106.42 13.8474 0.0525732 17.4365 
93 1 106.42 11.8648 15.6408 19.493 
13 1 106.42 11.4529 0.0845954 19.3573 
94 1 106.42 13.6768 17.7198 0.0838997 
496 1 106.42 11.9005 17.7484 17.5261 
97 1 106.42 15.5587 15.6901 0.191984 
500 1 106.42 15.8353 17.4981 17.6383 
499 1 106.42 17.5883 15.8563 17.9449 
