ITEM: TIMESTEP
23300
ITEM: NUMBER OF ATOMS
501
ITEM: BOX BOUNDS pp pp pp
0.0000000000000000e+00 1.9629018200000001e+01
0.0000000000000000e+00 1.9629018200000001e+01
0.0000000000000000e+00 1.9629018200000001e+01
ITEM: ATOMS id type mass x y z 
8 1 106.42 3.91255 1.87096 2.02858 
102 1 106.42 1.74005 1.86656 3.87982 
125 1 106.42 3.82852 3.8094 3.58926 
25 1 106.42 3.90943 3.885 0.0816963 
12 1 106.42 7.87508 1.89601 2.06155 
6 1 106.42 5.86459 1.94553 0.296709 
106 1 106.42 5.91897 2.01777 3.73087 
11 1 106.42 9.64529 0.0669777 1.88476 
31 1 106.42 10.0989 3.86367 1.9489 
29 1 106.42 7.83488 3.83504 0.131069 
16 1 106.42 11.9258 1.69332 1.75879 
20 1 106.42 15.6929 2.10603 1.9395 
15 1 106.42 14.0052 0.0610251 2.10758 
35 1 106.42 13.5787 3.68404 1.78605 
4 1 106.42 19.5185 1.80093 1.80866 
39 1 106.42 17.6061 3.77079 1.84932 
118 1 106.42 17.7654 1.88438 3.92107 
23 1 106.42 1.90582 4.04535 1.85475 
121 1 106.42 -0.00475158 4.01347 3.82064 
43 1 106.42 1.68703 7.8469 1.98342 
122 1 106.42 1.96736 5.85181 3.77892 
22 1 106.42 2.00284 6.11006 0.224362 
27 1 106.42 5.96098 4.07566 2.07529 
28 1 106.42 4.09338 6.10856 1.85111 
145 1 106.42 4.08309 7.8015 3.85452 
47 1 106.42 6.13253 7.59942 2.17569 
26 1 106.42 6.19697 5.82943 0.0842018 
32 1 106.42 7.99097 5.77301 2.29222 
51 1 106.42 9.81417 7.66251 2.43437 
30 1 106.42 9.98983 5.70455 0.168471 
36 1 106.42 11.8851 6.04384 2.08729 
55 1 106.42 14.0256 7.67189 2.08684 
134 1 106.42 13.6991 5.79633 3.85497 
34 1 106.42 13.8084 5.99864 0.127654 
40 1 106.42 15.8268 5.5776 2.0062 
24 1 106.42 19.5453 5.98735 2.03528 
138 1 106.42 17.6794 6.0475 3.81202 
59 1 106.42 17.5842 7.82642 1.89072 
21 1 106.42 19.528 4.05796 0.351431 
41 1 106.42 0.0943529 8.13033 0.156849 
48 1 106.42 3.95861 9.61435 1.85917 
44 1 106.42 0.147094 9.91373 1.95278 
52 1 106.42 7.6622 9.90967 1.80109 
46 1 106.42 5.99022 9.68452 0.00206854 
173 1 106.42 11.7315 11.4697 3.63898 
150 1 106.42 9.58145 9.85739 3.67899 
50 1 106.42 10.0971 9.3606 0.1195 
71 1 106.42 9.80356 11.5112 1.54717 
73 1 106.42 11.7561 11.2929 0.0667746 
56 1 106.42 11.899 9.41061 2.0137 
154 1 106.42 13.7952 10.0037 3.85502 
60 1 106.42 15.5735 9.98396 1.95329 
158 1 106.42 17.6745 9.89162 3.48838 
177 1 106.42 15.8521 11.6942 3.83955 
63 1 106.42 2.0583 12.0116 2.10585 
65 1 106.42 3.80914 11.7545 -0.00377796 
85 1 106.42 3.76754 15.6799 0.169939 
64 1 106.42 0.232251 13.6425 2.1359 
67 1 106.42 5.72406 11.9503 1.89535 
169 1 106.42 7.71902 11.8385 3.60832 
68 1 106.42 4.14318 13.7735 1.98198 
87 1 106.42 6.34859 15.6448 1.63745 
166 1 106.42 6.01732 13.8808 3.75618 
72 1 106.42 8.10039 13.5321 1.62643 
170 1 106.42 9.93026 13.4763 3.73953 
76 1 106.42 11.7018 13.6183 1.84035 
189 1 106.42 8.24266 15.4674 3.62461 
75 1 106.42 13.5569 11.9293 1.98573 
97 1 106.42 15.6348 15.5265 0.146451 
80 1 106.42 15.5116 13.7862 2.15234 
74 1 106.42 13.7474 13.6829 0.0315688 
79 1 106.42 17.7801 12.3598 2.25369 
99 1 106.42 18.0041 15.6471 1.91459 
1 1 106.42 0.0679599 19.4189 -0.0245997 
3 1 106.42 2.09325 19.6074 1.90507 
83 1 106.42 1.8852 15.7971 2.0221 
82 1 106.42 2.05959 17.5415 0.0259057 
84 1 106.42 0.22981 17.742 2.16419 
181 1 106.42 0.0375503 15.8927 3.86431 
7 1 106.42 6.05932 19.433 2.14297 
88 1 106.42 4.00788 17.5148 1.98552 
86 1 106.42 5.60673 17.7859 0.0435816 
185 1 106.42 3.91062 15.7784 3.92598 
186 1 106.42 6.19743 17.4137 3.9204 
9 1 106.42 7.41012 19.4356 0.0159553 
92 1 106.42 8.05068 17.4636 1.79263 
91 1 106.42 10.1255 15.7088 1.81803 
190 1 106.42 10.1002 17.6851 3.53461 
95 1 106.42 13.526 15.8297 2.09992 
96 1 106.42 11.9146 17.8366 1.84831 
100 1 106.42 15.6853 17.5434 2.07027 
194 1 106.42 13.592 17.5684 3.86837 
19 1 106.42 17.605 19.4227 2.00459 
198 1 106.42 17.8839 17.7922 3.87406 
101 1 106.42 0.16033 0.0479551 3.93261 
108 1 106.42 3.51383 1.88744 6.1852 
103 1 106.42 1.79792 0.0487179 5.86645 
105 1 106.42 3.85749 0.00260708 4.06002 
104 1 106.42 0.00156123 2.02916 5.85195 
127 1 106.42 5.51 3.49311 5.86129 
109 1 106.42 7.84634 0.0117259 3.96476 
206 1 106.42 5.74076 1.74358 7.79897 
129 1 106.42 7.93956 3.61149 4.03114 
112 1 106.42 7.8595 2.08537 6.08617 
110 1 106.42 9.63743 1.84818 3.94664 
113 1 106.42 11.7027 0.0013146 3.93058 
116 1 106.42 11.4587 1.93804 5.89683 
133 1 106.42 11.6539 3.69955 4.11831 
111 1 106.42 9.65585 0.0905096 5.94292 
114 1 106.42 13.7679 1.98083 3.94934 
214 1 106.42 13.61 2.02001 7.58407 
120 1 106.42 15.6166 1.99817 5.9337 
137 1 106.42 16.1195 3.71682 4.04877 
218 1 106.42 17.8802 2.17771 7.58274 
117 1 106.42 15.7413 0.184357 4.0526 
217 1 106.42 15.8513 0.219654 7.61422 
123 1 106.42 1.88408 3.92537 5.77007 
128 1 106.42 3.84931 5.67922 6.09519 
124 1 106.42 0.042522 5.90616 5.9088 
143 1 106.42 2.34869 7.79216 5.84603 
126 1 106.42 5.71802 5.79404 4.13707 
132 1 106.42 7.53781 5.57056 5.93355 
130 1 106.42 9.76508 5.61374 4.19255 
131 1 106.42 9.978 4.15746 6.33114 
136 1 106.42 11.8148 6.13639 6.02464 
149 1 106.42 7.8602 7.71985 4.14083 
151 1 106.42 9.64798 7.76398 6.10358 
135 1 106.42 13.8668 3.94152 5.68154 
234 1 106.42 13.8413 5.8875 7.69308 
140 1 106.42 15.5191 6.05019 5.62706 
233 1 106.42 11.9711 4.04646 7.68494 
139 1 106.42 17.7292 4.30317 5.92288 
238 1 106.42 17.5755 6.06859 7.63183 
142 1 106.42 1.98373 9.60095 3.99712 
242 1 106.42 1.90763 9.51044 7.8103 
148 1 106.42 3.86104 9.93686 5.83916 
146 1 106.42 5.81564 9.9977 4.01013 
165 1 106.42 3.96384 11.7455 4.00279 
147 1 106.42 5.83266 7.92932 5.92158 
167 1 106.42 5.97947 11.7026 5.9939 
153 1 106.42 11.6023 7.83033 4.22185 
152 1 106.42 7.95535 9.86276 5.64139 
156 1 106.42 11.6968 9.89953 5.99839 
171 1 106.42 9.63862 11.6214 5.5092 
269 1 106.42 8.10253 11.6781 7.67166 
155 1 106.42 13.761 8.13284 5.8333 
254 1 106.42 13.8229 10.1186 7.68237 
141 1 106.42 19.5731 7.97048 3.93951 
157 1 106.42 15.7966 8.23585 4.11041 
144 1 106.42 19.4699 9.82065 6.02407 
160 1 106.42 15.8335 9.9843 5.98064 
257 1 106.42 15.7725 7.88955 7.57975 
159 1 106.42 17.8068 7.96861 5.78266 
179 1 106.42 17.653 11.7371 5.98772 
161 1 106.42 0.043681 11.8851 4.05334 
162 1 106.42 2.0497 13.7878 4.25068 
163 1 106.42 1.98448 11.8909 5.65306 
164 1 106.42 0.0208362 13.8098 6.0187 
183 1 106.42 2.08171 15.6588 6.13562 
168 1 106.42 3.80856 13.5099 6.03378 
285 1 106.42 3.91003 15.4303 7.84995 
266 1 106.42 6.14794 13.5782 7.798 
187 1 106.42 5.83542 15.6783 5.99714 
193 1 106.42 11.5798 15.6055 3.97873 
172 1 106.42 7.83494 13.8316 5.60871 
176 1 106.42 11.6783 13.7724 6.01574 
270 1 106.42 9.71815 13.6066 7.71009 
174 1 106.42 13.662 13.9876 3.97023 
175 1 106.42 13.5398 11.9034 5.55425 
180 1 106.42 15.4987 13.6072 5.85527 
261 1 106.42 19.5515 11.7714 7.69292 
178 1 106.42 17.5743 14.0163 4.03796 
297 1 106.42 15.8258 15.6971 7.84992 
278 1 106.42 17.6223 13.7005 7.64229 
182 1 106.42 2.2507 17.6988 3.9578 
107 1 106.42 5.88926 19.5533 5.86497 
188 1 106.42 4.06852 17.7405 5.89669 
205 1 106.42 3.98276 19.4859 7.78156 
192 1 106.42 7.9706 17.7885 6.03776 
191 1 106.42 9.56545 15.7849 5.73265 
196 1 106.42 11.6881 17.4648 5.64227 
293 1 106.42 11.4636 15.8458 7.71598 
289 1 106.42 7.81849 15.6683 7.60497 
290 1 106.42 9.80929 17.95 7.81057 
195 1 106.42 13.8044 15.9237 6.03068 
197 1 106.42 15.6288 15.8682 4.01085 
115 1 106.42 13.4316 19.3995 5.7864 
294 1 106.42 13.5906 17.5764 7.8383 
184 1 106.42 19.6675 17.6554 6.06628 
200 1 106.42 15.7835 17.8404 5.9896 
119 1 106.42 17.7511 19.5538 5.77915 
199 1 106.42 17.5744 15.8204 5.70022 
225 1 106.42 3.93306 3.65945 8.05769 
202 1 106.42 1.70826 2.22693 7.86978 
301 1 106.42 0.430397 0.131023 11.6423 
208 1 106.42 3.78383 1.71743 9.95542 
223 1 106.42 1.93409 3.90066 9.8707 
203 1 106.42 1.98776 0.0247738 9.43789 
229 1 106.42 7.83665 3.7632 8.1085 
212 1 106.42 7.81473 1.85697 9.76613 
227 1 106.42 5.87502 3.46125 9.72557 
305 1 106.42 4.05478 0.106959 11.75 
325 1 106.42 3.94906 3.90992 11.5806 
309 1 106.42 7.66621 0.101108 11.5934 
210 1 106.42 10.0382 2.04576 8.0239 
216 1 106.42 11.7215 2.02396 9.76944 
231 1 106.42 9.91138 3.92474 9.60954 
310 1 106.42 9.74677 1.93951 11.7504 
314 1 106.42 13.4137 1.85101 11.4523 
235 1 106.42 13.8467 3.72936 9.75077 
337 1 106.42 15.6148 3.78291 11.7579 
213 1 106.42 11.865 0.218551 8.07822 
317 1 106.42 15.6167 0.270434 11.6474 
204 1 106.42 19.4191 2.27267 10.0376 
201 1 106.42 19.5815 0.103513 7.83674 
220 1 106.42 15.7633 1.94368 9.62292 
219 1 106.42 17.7884 0.366584 9.60413 
221 1 106.42 0.21115 4.18532 7.90659 
222 1 106.42 1.9027 6.03586 7.92073 
228 1 106.42 3.78895 5.69451 9.76949 
345 1 106.42 3.78397 7.51285 11.7143 
226 1 106.42 5.92294 5.74505 7.85379 
232 1 106.42 7.59929 5.81137 9.68539 
245 1 106.42 4.17091 7.85477 7.84722 
247 1 106.42 5.6893 7.62705 9.88183 
329 1 106.42 7.98012 3.87595 11.5469 
230 1 106.42 9.521 6.06639 7.96551 
251 1 106.42 9.74588 7.73482 9.9962 
353 1 106.42 11.7147 7.68537 11.5023 
236 1 106.42 11.9592 5.64187 9.60963 
334 1 106.42 13.6877 5.89668 11.5194 
237 1 106.42 15.7306 4.11723 7.88161 
241 1 106.42 19.4967 7.74892 7.97659 
224 1 106.42 19.4314 5.82228 9.79916 
239 1 106.42 17.7038 3.95915 9.5344 
240 1 106.42 15.7241 6.115 9.5824 
338 1 106.42 17.5591 5.84282 11.7274 
243 1 106.42 1.91406 7.85403 9.93995 
244 1 106.42 0.343704 9.88193 9.93986 
263 1 106.42 2.30025 11.3765 9.58926 
265 1 106.42 4.14824 11.6449 7.94336 
246 1 106.42 6.11537 9.72554 8.08576 
248 1 106.42 4.02144 9.8175 9.83474 
249 1 106.42 7.75878 8.03942 8.26591 
267 1 106.42 6.10106 11.6282 9.94269 
349 1 106.42 7.6881 7.97184 11.6054 
346 1 106.42 5.66952 9.80181 11.7314 
250 1 106.42 10.0577 9.7303 8.17042 
273 1 106.42 11.735 11.7274 7.98038 
252 1 106.42 8.05943 10.0498 10.0656 
256 1 106.42 11.7088 9.90598 10.0042 
253 1 106.42 11.8299 8.02539 8.41958 
255 1 106.42 13.9343 8.04204 9.48496 
260 1 106.42 15.6425 9.92988 9.56092 
377 1 106.42 15.6814 11.6052 11.534 
259 1 106.42 17.6447 8.06254 9.83622 
258 1 106.42 17.7656 9.73205 7.95232 
358 1 106.42 17.7246 9.76186 11.8094 
262 1 106.42 1.8966 13.5456 8.07887 
283 1 106.42 1.80357 15.4981 9.95224 
264 1 106.42 0.150359 13.3096 9.80252 
268 1 106.42 4.01081 13.5084 9.77331 
287 1 106.42 5.78069 15.2814 9.69288 
366 1 106.42 5.91695 13.7237 11.7427 
272 1 106.42 7.87996 13.9119 9.74447 
271 1 106.42 9.69805 11.897 9.83476 
291 1 106.42 9.92101 15.6136 9.97607 
276 1 106.42 11.6089 13.6433 9.90015 
275 1 106.42 13.5681 11.9917 9.83094 
274 1 106.42 13.7238 13.8913 7.92699 
374 1 106.42 13.9291 13.6653 11.6288 
295 1 106.42 13.7515 15.6845 9.75285 
279 1 106.42 17.5944 11.8683 9.73358 
277 1 106.42 15.7433 11.8757 7.79899 
280 1 106.42 15.8008 13.7576 9.62423 
378 1 106.42 17.9181 13.9046 11.7831 
281 1 106.42 19.5977 15.5797 7.91483 
282 1 106.42 1.88104 17.6651 7.88544 
284 1 106.42 0.0578039 17.9181 9.69281 
288 1 106.42 3.88363 17.3867 9.79098 
381 1 106.42 0.0655042 15.7878 11.6424 
286 1 106.42 5.79983 17.5767 8.03031 
207 1 106.42 5.80508 19.4919 9.83614 
386 1 106.42 5.62695 17.5096 11.5039 
209 1 106.42 7.81027 19.5653 8.01623 
211 1 106.42 9.76661 19.4827 9.89288 
292 1 106.42 7.91056 17.4776 9.74413 
296 1 106.42 11.5092 17.4944 9.74528 
215 1 106.42 14.0198 19.616 9.64062 
313 1 106.42 11.785 19.5683 11.5309 
299 1 106.42 17.8787 15.8705 9.94994 
397 1 106.42 15.754 16.301 11.7703 
300 1 106.42 15.9492 17.8037 9.87331 
298 1 106.42 17.7715 17.8061 7.96388 
398 1 106.42 17.8728 18.2318 11.4564 
302 1 106.42 1.87313 2.15056 11.7427 
303 1 106.42 1.92127 0.0070183 13.7633 
308 1 106.42 3.86141 1.99902 13.6654 
304 1 106.42 0.149761 2.05424 13.866 
405 1 106.42 3.59407 0.246023 15.6306 
306 1 106.42 5.973 1.95789 12.0477 
312 1 106.42 7.7763 2.4149 13.7981 
327 1 106.42 5.82534 3.82453 13.6827 
307 1 106.42 5.68053 0.103453 13.7589 
410 1 106.42 9.79869 1.80474 15.6259 
311 1 106.42 9.4836 0.160512 13.7271 
413 1 106.42 11.6457 0.0459488 15.483 
433 1 106.42 11.7016 3.78112 15.615 
316 1 106.42 11.7738 2.02379 13.4928 
501 2 1.01 14.6338 1.04269 12.3862 
320 1 106.42 15.5692 2.04104 13.721 
315 1 106.42 13.8237 0.0997696 13.8331 
414 1 106.42 13.6909 2.12767 15.5031 
437 1 106.42 15.6564 3.68576 15.5889 
318 1 106.42 17.5659 2.05419 11.9154 
417 1 106.42 15.769 -0.0320855 15.6665 
319 1 106.42 17.7975 0.113759 13.4877 
322 1 106.42 1.92115 5.92707 12.0241 
323 1 106.42 1.92409 3.98469 13.7022 
328 1 106.42 3.91318 5.57004 13.9729 
326 1 106.42 5.84897 5.81624 11.9411 
426 1 106.42 6.2001 6.02229 15.6003 
330 1 106.42 9.76064 5.7758 11.7851 
333 1 106.42 11.5563 4.06744 11.9462 
332 1 106.42 7.93507 5.75273 13.6015 
331 1 106.42 9.87382 3.99678 13.8386 
351 1 106.42 9.85341 7.79434 13.6401 
429 1 106.42 8.08465 4.07334 15.5876 
430 1 106.42 9.9156 6.04658 15.4623 
335 1 106.42 13.6509 4.07061 13.5504 
336 1 106.42 11.8076 6.01859 13.5918 
357 1 106.42 15.679 7.59674 11.7736 
321 1 106.42 19.5301 4.19286 11.9976 
339 1 106.42 17.7335 4.03436 13.8742 
341 1 106.42 19.5095 7.75938 11.88 
324 1 106.42 19.4039 6.00684 13.7795 
340 1 106.42 15.8824 5.87731 13.9451 
359 1 106.42 17.4347 7.80939 13.8069 
342 1 106.42 2.13945 9.92721 11.9759 
343 1 106.42 2.09118 7.99226 13.805 
441 1 106.42 0.130173 7.9603 15.5846 
363 1 106.42 1.81251 11.6445 13.8456 
347 1 106.42 5.92436 7.95082 13.6057 
348 1 106.42 3.99881 10.1309 13.8934 
446 1 106.42 6.11876 9.74387 15.6337 
350 1 106.42 10.0218 9.72184 11.8102 
352 1 106.42 7.87849 9.86818 13.583 
473 1 106.42 11.7626 11.6081 15.6204 
450 1 106.42 9.61101 9.75632 15.7102 
371 1 106.42 9.92547 11.3738 13.9212 
449 1 106.42 7.87117 7.87295 15.5057 
354 1 106.42 13.8887 9.5937 11.8935 
355 1 106.42 13.9354 8.02954 13.98 
356 1 106.42 12.1437 9.91483 13.473 
375 1 106.42 13.9023 11.7541 13.4618 
453 1 106.42 11.9941 7.95678 15.5115 
361 1 106.42 19.4858 11.7078 12.0528 
344 1 106.42 19.4695 9.57023 13.7153 
360 1 106.42 15.888 10.0421 13.7243 
385 1 106.42 3.79307 15.6483 11.9405 
362 1 106.42 2.11866 13.3448 11.9227 
383 1 106.42 2.07673 15.4897 14.0919 
365 1 106.42 4.02002 11.8861 11.9776 
368 1 106.42 3.93438 13.5374 14.0904 
369 1 106.42 7.80178 11.9532 11.8283 
367 1 106.42 6.00577 11.8907 13.9095 
387 1 106.42 5.53805 15.514 13.6716 
372 1 106.42 7.80243 13.885 13.9469 
389 1 106.42 7.61086 15.6676 11.922 
373 1 106.42 11.7923 11.8985 11.773 
370 1 106.42 9.89122 13.8124 12.2903 
470 1 106.42 9.7911 13.4243 15.6739 
376 1 106.42 11.9787 13.5121 13.661 
474 1 106.42 13.653 13.7699 15.5103 
379 1 106.42 17.6694 11.8426 14.107 
380 1 106.42 15.6752 13.8745 13.2746 
364 1 106.42 19.5384 14.0094 13.6469 
477 1 106.42 15.7795 12.2311 15.6938 
478 1 106.42 17.4978 14.0415 15.5859 
382 1 106.42 1.95465 17.4422 11.7992 
388 1 106.42 3.68157 17.6783 13.7802 
384 1 106.42 0.174869 17.4227 13.71 
392 1 106.42 7.43109 17.8072 13.721 
489 1 106.42 7.76656 15.8538 15.5628 
485 1 106.42 4.16546 15.9469 15.7034 
390 1 106.42 9.62471 17.8515 12.0136 
493 1 106.42 11.7056 15.797 15.6851 
391 1 106.42 9.83186 15.8239 13.9717 
396 1 106.42 11.6453 17.8032 13.563 
394 1 106.42 13.7496 17.7944 11.9343 
393 1 106.42 11.9748 15.8121 11.7183 
395 1 106.42 13.6294 15.7411 13.6727 
400 1 106.42 15.5041 17.8398 14.0361 
401 1 106.42 19.5601 19.6102 15.3256 
399 1 106.42 17.4397 15.9179 13.6342 
481 1 106.42 19.4709 15.7459 15.6061 
402 1 106.42 1.89124 2.02324 15.7477 
2 1 106.42 1.77205 2.00875 19.5674 
408 1 106.42 3.63686 2.06329 17.5389 
5 1 106.42 3.74272 0.267712 19.6107 
406 1 106.42 5.87236 1.83086 15.7813 
412 1 106.42 7.58523 2.06864 17.6621 
10 1 106.42 9.69499 2.16172 19.5224 
431 1 106.42 9.78644 3.8624 17.5252 
411 1 106.42 9.4071 0.228117 17.8985 
13 1 106.42 11.7151 0.127595 19.4217 
33 1 106.42 11.677 3.73765 19.3974 
17 1 106.42 15.5457 0.0541459 19.5227 
416 1 106.42 11.8122 1.88795 17.429 
14 1 106.42 13.7811 1.74058 19.5986 
435 1 106.42 13.6197 3.74795 17.9186 
415 1 106.42 14.0051 0.0976149 17.6129 
418 1 106.42 17.6674 1.78458 15.7798 
404 1 106.42 19.6546 1.78407 17.6459 
18 1 106.42 17.6333 1.84892 19.5058 
420 1 106.42 15.785 1.90635 17.5197 
439 1 106.42 17.7181 3.62472 17.6847 
422 1 106.42 1.74044 5.76266 15.885 
423 1 106.42 1.79427 4.02257 17.8151 
424 1 106.42 0.121904 5.91984 18.1216 
425 1 106.42 3.66129 3.9449 15.9843 
443 1 106.42 2.03571 7.68364 17.76 
445 1 106.42 3.9794 7.73079 15.8245 
428 1 106.42 4.0179 5.93069 18.0612 
427 1 106.42 5.85643 4.12579 17.5616 
447 1 106.42 6.00792 7.71247 17.9221 
49 1 106.42 8.02674 7.68383 19.5745 
432 1 106.42 8.22284 5.74897 17.7116 
451 1 106.42 9.84735 7.77512 17.5706 
436 1 106.42 11.6847 5.70755 17.5737 
53 1 106.42 11.739 7.64715 19.5981 
37 1 106.42 15.681 3.95743 19.4933 
434 1 106.42 13.6716 5.77916 15.7076 
440 1 106.42 15.3587 5.73046 17.4946 
57 1 106.42 15.8412 7.81866 19.4215 
457 1 106.42 15.8822 7.78176 15.8977 
421 1 106.42 19.5466 4.03566 15.8702 
38 1 106.42 17.546 5.92891 19.6487 
438 1 106.42 17.6602 5.97865 15.9488 
61 1 106.42 0.0582121 11.5185 19.5644 
42 1 106.42 2.1418 9.81879 19.6017 
442 1 106.42 1.95718 9.95489 15.7556 
444 1 106.42 0.0123238 9.7689 17.8359 
463 1 106.42 2.062 11.7427 17.7418 
45 1 106.42 4.15816 7.9559 19.6121 
448 1 106.42 4.03033 9.745 17.5276 
452 1 106.42 7.77033 9.49032 17.6419 
469 1 106.42 7.75799 11.7292 15.7426 
471 1 106.42 9.61212 11.4702 17.7716 
54 1 106.42 14.0971 9.74933 19.5397 
454 1 106.42 14.0327 9.99401 15.8529 
455 1 106.42 13.7034 8.14433 17.7087 
456 1 106.42 11.8112 9.68217 17.4857 
475 1 106.42 13.7874 11.7644 17.7036 
58 1 106.42 17.667 9.7561 19.5737 
459 1 106.42 17.8805 7.88484 17.7698 
460 1 106.42 15.9761 9.82091 17.6112 
458 1 106.42 17.8236 9.70997 15.863 
479 1 106.42 17.7334 11.7837 17.7604 
62 1 106.42 1.88849 13.8211 19.5376 
462 1 106.42 1.89644 13.5678 15.9874 
483 1 106.42 1.85826 15.6305 17.4536 
468 1 106.42 3.89871 13.9938 17.5861 
69 1 106.42 7.77235 11.8407 19.3818 
467 1 106.42 5.79891 11.977 17.7659 
66 1 106.42 5.80431 13.9139 19.6195 
465 1 106.42 3.91817 11.7117 15.8402 
466 1 106.42 6.09374 13.8785 15.8728 
472 1 106.42 7.65382 13.848 17.7238 
70 1 106.42 9.66175 13.8773 19.3778 
93 1 106.42 11.7306 15.6564 19.4196 
491 1 106.42 9.6224 15.6203 17.3559 
476 1 106.42 11.9407 13.2863 17.7889 
480 1 106.42 15.5779 13.7809 17.7952 
495 1 106.42 13.4448 15.498 17.6429 
78 1 106.42 17.9058 13.8411 19.6122 
461 1 106.42 19.5743 11.843 15.7833 
77 1 106.42 15.9408 11.984 19.5809 
464 1 106.42 19.4211 13.8394 17.4487 
499 1 106.42 17.5624 15.5302 17.6947 
403 1 106.42 1.92117 19.3468 17.6263 
482 1 106.42 2.17804 17.6465 15.7241 
488 1 106.42 3.76875 17.6228 17.8287 
81 1 106.42 0.167416 15.7493 19.4423 
409 1 106.42 7.88175 19.5175 15.8374 
407 1 106.42 5.65239 19.5668 17.8676 
486 1 106.42 5.84196 17.9755 15.8668 
487 1 106.42 5.83786 15.8175 17.8124 
89 1 106.42 8.04889 15.9168 19.4085 
492 1 106.42 7.97508 17.7445 17.5131 
90 1 106.42 9.79317 17.6096 19.5457 
490 1 106.42 9.82873 17.8167 15.7433 
94 1 106.42 13.9294 17.6569 19.5954 
497 1 106.42 15.4229 15.793 15.8336 
494 1 106.42 13.6008 17.798 15.773 
496 1 106.42 11.8308 17.9015 17.7985 
500 1 106.42 15.4126 17.4849 17.9612 
98 1 106.42 17.6487 17.9838 19.5775 
498 1 106.42 17.4805 17.7575 15.7467 
484 1 106.42 19.5231 17.5908 17.4776 
419 1 106.42 17.8373 19.6582 17.6593 
