ITEM: TIMESTEP
27900
ITEM: NUMBER OF ATOMS
501
ITEM: BOX BOUNDS pp pp pp
0.0000000000000000e+00 1.9629018200000001e+01
0.0000000000000000e+00 1.9629018200000001e+01
0.0000000000000000e+00 1.9629018200000001e+01
ITEM: ATOMS id type mass x y z 
105 1 106.42 3.79515 0.118401 3.87212 
4 1 106.42 0.208712 2.06171 1.65963 
3 1 106.42 2.09796 0.267576 1.92143 
121 1 106.42 19.4036 3.56096 3.73719 
8 1 106.42 4.10768 2.01189 1.9565 
106 1 106.42 5.74175 1.9835 4.03217 
6 1 106.42 5.76352 1.74868 0.0533999 
27 1 106.42 5.80802 4.0143 1.89906 
129 1 106.42 7.84532 3.93026 3.46445 
12 1 106.42 7.80622 1.70393 1.94899 
16 1 106.42 11.7043 2.35405 1.89609 
14 1 106.42 13.7426 2.00893 19.6161 
20 1 106.42 15.6779 2.22734 1.9873 
15 1 106.42 13.7257 -0.042382 1.83781 
113 1 106.42 11.8381 0.154069 3.73373 
118 1 106.42 17.5881 1.92902 4.26387 
18 1 106.42 17.4207 2.20676 19.6463 
1 1 106.42 0.242179 19.4788 0.136579 
19 1 106.42 17.5478 0.418279 2.1756 
101 1 106.42 19.5889 0.00116986 3.6375 
23 1 106.42 2.1005 3.8974 1.99676 
21 1 106.42 -0.0165852 4.29889 0.101918 
24 1 106.42 0.0693933 5.70797 2.18351 
43 1 106.42 1.71134 7.82535 1.89798 
22 1 106.42 2.07119 5.81329 -0.0366476 
28 1 106.42 4.0129 5.99385 1.70604 
47 1 106.42 6.03843 8.05534 1.98332 
126 1 106.42 5.87826 5.88353 3.79705 
32 1 106.42 7.86816 6.12498 1.99719 
31 1 106.42 9.65039 3.77046 1.73108 
130 1 106.42 9.85108 5.88785 3.7176 
35 1 106.42 13.8397 3.97396 1.87953 
36 1 106.42 11.6229 5.64386 1.91187 
55 1 106.42 13.7281 7.93078 1.99825 
134 1 106.42 13.8657 5.70532 3.957 
34 1 106.42 13.9334 6.09468 0.32495 
40 1 106.42 15.908 5.85223 2.08661 
39 1 106.42 17.6831 3.8082 1.93541 
38 1 106.42 17.7722 5.89422 0.04814 
138 1 106.42 17.8518 5.99726 4.18078 
59 1 106.42 17.8982 7.67269 2.10732 
48 1 106.42 3.49765 9.44837 1.97775 
65 1 106.42 3.97228 11.8674 0.0939953 
67 1 106.42 5.77618 11.3808 2.03496 
51 1 106.42 9.82743 7.6338 1.53415 
52 1 106.42 7.88908 9.71752 2.08331 
50 1 106.42 9.80365 10.0941 0.0697301 
56 1 106.42 11.6699 9.68801 2.05201 
75 1 106.42 13.6144 11.7395 2.01586 
60 1 106.42 15.4828 9.86323 1.75166 
44 1 106.42 19.3724 9.84399 1.98965 
57 1 106.42 15.8404 7.6457 19.5604 
177 1 106.42 15.8825 11.5707 3.86343 
158 1 106.42 17.5686 9.60044 3.73464 
63 1 106.42 2.10724 11.8676 2.05587 
162 1 106.42 1.91717 13.8564 4.03436 
185 1 106.42 3.9067 15.7829 3.81503 
83 1 106.42 2.16304 15.6392 1.79249 
68 1 106.42 4.01335 13.6856 2.20714 
72 1 106.42 7.80268 13.6397 2.06486 
87 1 106.42 6.06178 15.4973 2.13445 
69 1 106.42 7.7835 11.8652 -0.0260924 
66 1 106.42 5.77798 13.7313 0.308095 
71 1 106.42 9.53477 11.6333 2.3674 
91 1 106.42 9.82523 15.5157 2.09642 
70 1 106.42 9.72073 13.6106 19.5791 
76 1 106.42 11.8017 13.6552 1.93847 
93 1 106.42 12.179 15.6454 0.0594225 
174 1 106.42 13.9311 13.8844 3.89225 
173 1 106.42 11.7614 11.9433 3.99775 
79 1 106.42 17.6768 11.6129 1.7209 
80 1 106.42 15.706 13.6088 1.65656 
197 1 106.42 15.8421 15.5446 3.81985 
64 1 106.42 0.135733 13.7583 1.87482 
178 1 106.42 17.6948 13.3875 3.80499 
99 1 106.42 17.7173 15.6703 1.61565 
181 1 106.42 0.170031 15.8303 3.76602 
84 1 106.42 0.166718 17.6612 1.86492 
182 1 106.42 2.09757 17.609 3.58065 
7 1 106.42 5.94183 19.6278 1.93766 
88 1 106.42 4.07691 17.5816 1.83631 
186 1 106.42 5.60114 17.7777 3.92389 
92 1 106.42 7.62942 17.6583 1.86884 
89 1 106.42 7.78576 15.5456 0.253424 
9 1 106.42 7.96128 19.5652 19.5387 
11 1 106.42 9.6585 19.4297 1.89682 
96 1 106.42 11.6105 17.6165 2.21357 
95 1 106.42 13.767 15.6683 1.93974 
194 1 106.42 13.5052 17.5655 3.85756 
94 1 106.42 14.0393 17.5814 0.0584133 
17 1 106.42 15.5653 0.243273 0.0215134 
100 1 106.42 15.6766 17.6987 2.05957 
198 1 106.42 17.89 17.4805 3.72709 
98 1 106.42 17.5534 17.6631 0.104851 
102 1 106.42 2.2705 2.0122 4.02171 
123 1 106.42 2.24113 4.24481 5.88561 
202 1 106.42 1.48342 2.15879 7.74556 
108 1 106.42 4.10177 2.26442 5.93122 
112 1 106.42 7.83575 1.90034 5.85775 
206 1 106.42 5.94196 2.24055 7.8121 
205 1 106.42 3.97259 0.15262 7.6239 
110 1 106.42 9.9725 2.09812 3.86337 
210 1 106.42 9.96106 2.00892 7.53327 
116 1 106.42 11.874 2.11925 5.99958 
114 1 106.42 13.6218 2.26117 4.21044 
133 1 106.42 11.8119 3.94775 3.93132 
217 1 106.42 15.7799 19.3309 7.83349 
120 1 106.42 15.5057 2.07974 6.17064 
104 1 106.42 19.649 1.73122 5.52611 
221 1 106.42 19.5376 3.98451 7.84623 
218 1 106.42 17.6319 2.04718 7.64371 
122 1 106.42 2.17337 6.00891 4.0301 
124 1 106.42 0.212404 5.46143 5.84209 
128 1 106.42 4.29551 6.00894 6.06675 
125 1 106.42 4.11404 4.19167 3.89851 
127 1 106.42 5.81476 4.04884 5.7374 
145 1 106.42 4.22993 7.70419 3.86701 
153 1 106.42 11.8282 7.51456 3.81676 
131 1 106.42 9.74644 4.13876 5.77182 
132 1 106.42 7.92449 6.12004 5.39026 
151 1 106.42 9.90904 7.84185 5.86135 
229 1 106.42 7.93272 3.86753 7.87127 
249 1 106.42 7.97877 7.92096 7.69005 
135 1 106.42 13.6338 3.98039 6.0539 
136 1 106.42 11.8428 5.88245 5.99635 
155 1 106.42 13.6932 7.45073 5.80974 
140 1 106.42 15.6531 5.88872 5.89508 
139 1 106.42 17.5201 4.43934 6.04497 
137 1 106.42 15.722 3.80869 4.06821 
241 1 106.42 0.131502 8.0656 7.87207 
143 1 106.42 2.27559 7.65444 6.0211 
142 1 106.42 1.71005 9.63713 3.95061 
144 1 106.42 -0.0417628 10.0675 6.13212 
163 1 106.42 2.13324 11.6336 5.78276 
242 1 106.42 1.91058 10.1845 7.95789 
146 1 106.42 5.98806 9.75352 4.00167 
147 1 106.42 5.94576 7.9793 5.78448 
148 1 106.42 3.87048 9.81273 6.38753 
165 1 106.42 3.91728 11.4809 3.78638 
169 1 106.42 7.63308 11.7909 4.27475 
167 1 106.42 5.61678 11.6356 6.05222 
149 1 106.42 7.96153 7.96624 3.91617 
152 1 106.42 8.18822 9.93291 5.99563 
150 1 106.42 10.0219 9.85537 3.88633 
250 1 106.42 9.99119 9.88885 7.6994 
154 1 106.42 13.3753 9.74796 3.96973 
157 1 106.42 15.6412 7.94446 3.85735 
156 1 106.42 11.7427 9.67558 5.95828 
175 1 106.42 13.7257 11.9137 5.68329 
254 1 106.42 13.8977 9.56821 7.69745 
141 1 106.42 19.5629 7.65762 4.52126 
159 1 106.42 17.588 7.7542 6.1442 
160 1 106.42 15.8037 9.90855 5.87382 
179 1 106.42 17.6566 11.4001 5.97724 
161 1 106.42 0.0694061 11.9487 3.7951 
164 1 106.42 0.183009 13.6346 5.72826 
168 1 106.42 3.79209 13.9445 5.82688 
183 1 106.42 1.88566 15.6941 6.0568 
265 1 106.42 3.88607 12.0466 7.90554 
285 1 106.42 3.92685 15.7135 7.9513 
166 1 106.42 5.78725 13.5536 3.9179 
172 1 106.42 7.08932 13.9037 5.8501 
193 1 106.42 11.7959 15.5098 3.8415 
171 1 106.42 9.97692 11.9072 5.5963 
170 1 106.42 9.46583 13.9067 4.0708 
191 1 106.42 9.72493 15.9194 5.86633 
269 1 106.42 7.96742 11.867 7.70327 
176 1 106.42 11.9 13.7909 5.60615 
274 1 106.42 13.949 13.4323 7.87795 
297 1 106.42 15.8544 15.664 7.77999 
293 1 106.42 12.1243 15.3848 7.68386 
261 1 106.42 19.5178 12.0648 7.72459 
180 1 106.42 15.7019 13.3458 5.847 
278 1 106.42 17.6447 14.0736 7.5682 
103 1 106.42 2.06075 19.6186 6.05595 
188 1 106.42 3.68253 17.6312 5.84393 
184 1 106.42 0.136605 17.7409 5.70266 
109 1 106.42 7.76136 19.4841 3.959 
187 1 106.42 5.84939 15.9633 6.12983 
189 1 106.42 7.75754 15.8863 4.12132 
107 1 106.42 5.77288 0.0994898 5.77795 
192 1 106.42 7.88966 17.8916 6.04417 
286 1 106.42 5.98561 17.8677 8.08351 
190 1 106.42 9.61235 17.576 3.93494 
111 1 106.42 9.77666 19.4643 5.8756 
196 1 106.42 11.5796 17.4498 5.79023 
289 1 106.42 7.82295 15.903 7.88816 
117 1 106.42 15.28 0.323714 3.80036 
213 1 106.42 11.9708 19.3767 7.78334 
115 1 106.42 13.6244 19.3933 5.76812 
195 1 106.42 13.9019 15.8086 5.74376 
200 1 106.42 15.742 17.6627 5.51768 
294 1 106.42 13.8454 17.2784 7.70904 
199 1 106.42 18.0024 15.904 5.75066 
119 1 106.42 17.5007 19.5672 5.75183 
298 1 106.42 17.6787 17.5777 7.92394 
203 1 106.42 1.96722 0.131576 9.55222 
223 1 106.42 1.88907 3.65873 9.99416 
209 1 106.42 7.78907 0.281504 7.77637 
208 1 106.42 4.10028 1.89236 9.67745 
207 1 106.42 5.79945 0.101951 9.36166 
227 1 106.42 5.95726 4.04006 9.72651 
306 1 106.42 5.90597 2.15898 11.609 
309 1 106.42 7.77684 19.4564 11.7622 
325 1 106.42 4.11645 3.86006 11.5881 
212 1 106.42 7.93092 2.04572 9.70936 
231 1 106.42 9.95211 3.71016 9.8531 
211 1 106.42 9.91709 0.24405 9.91296 
233 1 106.42 11.8005 3.92758 7.9824 
216 1 106.42 11.8844 1.87432 10.0115 
214 1 106.42 13.7062 1.7404 7.83372 
220 1 106.42 15.8916 1.76745 9.77625 
235 1 106.42 13.8215 3.81667 10.0714 
204 1 106.42 19.3516 1.71679 9.89771 
239 1 106.42 17.6702 3.60079 9.80513 
222 1 106.42 1.94158 5.90783 7.98374 
225 1 106.42 3.93048 3.85594 8.07005 
322 1 106.42 1.87764 5.80279 11.6297 
345 1 106.42 3.6148 7.97601 11.7348 
321 1 106.42 0.126737 3.68106 11.7255 
228 1 106.42 3.96024 6.06401 9.83154 
226 1 106.42 6.0534 5.99391 7.57806 
329 1 106.42 7.84477 3.76691 11.8985 
232 1 106.42 7.75018 5.98794 9.68292 
230 1 106.42 10.1532 5.9377 8.06826 
353 1 106.42 11.6189 7.49111 11.7827 
349 1 106.42 8.00852 7.57478 11.5363 
234 1 106.42 13.8259 5.72073 8.0177 
236 1 106.42 12.0171 5.70577 10.0432 
337 1 106.42 15.8586 3.90694 11.8803 
238 1 106.42 17.8583 5.93443 7.90834 
237 1 106.42 15.7305 3.88379 7.94098 
224 1 106.42 19.5762 5.68077 9.69009 
240 1 106.42 15.7535 6.02631 9.92923 
257 1 106.42 15.6604 7.71729 7.79265 
341 1 106.42 19.5646 7.76909 11.646 
243 1 106.42 1.43789 7.86884 9.78137 
245 1 106.42 3.78505 7.9465 8.18922 
342 1 106.42 1.89766 10.1821 12.0747 
248 1 106.42 3.86388 9.84548 9.86679 
365 1 106.42 3.76528 11.675 11.843 
244 1 106.42 0.215447 10.0371 10.0836 
246 1 106.42 6.10387 9.64882 7.7498 
247 1 106.42 5.7503 7.87353 9.98892 
267 1 106.42 5.65553 11.7536 9.47617 
252 1 106.42 8.06107 9.84614 9.72279 
369 1 106.42 7.69157 11.8175 11.4946 
251 1 106.42 9.69201 7.86335 9.5584 
256 1 106.42 11.6038 9.67423 10.0692 
350 1 106.42 9.50643 9.55615 11.8366 
373 1 106.42 11.5967 11.4407 11.7431 
253 1 106.42 11.9564 7.78552 8.06951 
273 1 106.42 11.977 11.7089 8.07183 
277 1 106.42 15.6149 11.717 8.04329 
255 1 106.42 13.8456 7.86838 9.72885 
260 1 106.42 15.5261 9.54632 9.90973 
275 1 106.42 13.9077 11.7705 9.94346 
258 1 106.42 17.558 9.65661 8.06496 
259 1 106.42 17.6371 7.6907 9.92117 
358 1 106.42 17.6774 10.0253 11.6565 
262 1 106.42 1.71087 13.6156 7.95852 
263 1 106.42 2.16776 11.7468 9.82558 
362 1 106.42 1.89075 13.9443 11.8642 
268 1 106.42 3.68083 13.7316 9.76549 
266 1 106.42 5.89217 13.9721 7.89535 
366 1 106.42 5.95878 13.7805 11.7103 
287 1 106.42 5.6106 15.8118 9.72888 
271 1 106.42 9.82658 11.9223 9.81435 
272 1 106.42 7.81434 13.958 9.46169 
270 1 106.42 9.94749 13.7661 7.66525 
291 1 106.42 10.0605 15.7249 9.47486 
276 1 106.42 11.7707 13.4776 9.89721 
280 1 106.42 15.6244 13.6841 10.0269 
264 1 106.42 19.5808 13.9279 10.0132 
279 1 106.42 17.8321 12.115 9.47029 
361 1 106.42 19.492 12.0999 11.7564 
282 1 106.42 2.03562 17.6477 7.77347 
283 1 106.42 1.98834 15.6752 9.68722 
284 1 106.42 0.0601609 18.0295 10.124 
288 1 106.42 3.66246 17.7353 9.93194 
386 1 106.42 5.84785 17.7634 11.3361 
290 1 106.42 9.8551 18.05 7.89169 
292 1 106.42 8.37564 17.8987 9.72395 
296 1 106.42 11.7673 17.6393 9.79661 
389 1 106.42 7.83291 15.7368 11.2149 
393 1 106.42 11.988 15.5241 11.6202 
215 1 106.42 13.5904 19.6008 9.9147 
295 1 106.42 13.8368 15.5614 9.92265 
281 1 106.42 19.5824 15.7064 8.11642 
201 1 106.42 19.4045 19.376 7.8704 
300 1 106.42 15.6988 17.6564 9.79288 
299 1 106.42 17.6532 15.8963 10.0135 
219 1 106.42 17.4679 19.6135 9.8796 
398 1 106.42 17.5806 17.8 11.7616 
302 1 106.42 2.16929 1.78265 11.6895 
303 1 106.42 2.22306 0.0621422 13.9632 
323 1 106.42 2.0687 4.02022 13.673 
305 1 106.42 4.06169 0.0518909 11.7209 
308 1 106.42 4.0184 1.92107 13.7899 
406 1 106.42 5.87247 1.90276 15.6589 
312 1 106.42 7.52388 1.99074 13.5552 
429 1 106.42 7.89444 3.72846 15.5918 
310 1 106.42 9.69088 2.01635 12.129 
410 1 106.42 9.7053 2.03864 15.8066 
316 1 106.42 11.7443 2.00877 13.8979 
333 1 106.42 11.644 3.97196 12.0351 
314 1 106.42 13.8477 1.92767 11.8291 
320 1 106.42 15.4353 1.92729 13.8792 
317 1 106.42 15.5575 0.0535328 11.8707 
318 1 106.42 17.5419 2.04536 12.0194 
304 1 106.42 19.6967 2.01973 13.6216 
319 1 106.42 17.464 0.202893 13.6016 
339 1 106.42 17.4465 3.66483 14.0275 
421 1 106.42 19.5069 3.80314 15.6279 
328 1 106.42 3.80194 6.09014 13.7129 
324 1 106.42 -0.0387327 5.80598 13.6388 
327 1 106.42 5.64697 4.11568 13.7073 
326 1 106.42 5.60574 5.92579 11.7679 
347 1 106.42 5.73225 7.90695 13.7776 
330 1 106.42 9.68861 5.67547 11.6775 
331 1 106.42 9.88192 3.99897 14.1677 
332 1 106.42 7.78595 6.02859 14.1007 
336 1 106.42 11.7084 5.80946 14.0136 
351 1 106.42 9.65838 7.79273 14.0224 
335 1 106.42 13.752 4.21373 13.6142 
334 1 106.42 13.9231 6.01938 11.8624 
355 1 106.42 13.4971 7.77822 13.7772 
340 1 106.42 15.5592 5.90056 13.7305 
338 1 106.42 17.7079 5.68151 11.9423 
438 1 106.42 17.7721 5.86911 15.4762 
441 1 106.42 19.7385 7.70268 15.521 
343 1 106.42 1.76595 8.06825 13.4998 
348 1 106.42 3.88344 10.0185 13.7338 
442 1 106.42 1.963 9.97782 15.4954 
445 1 106.42 3.85254 7.68865 15.722 
346 1 106.42 6.02204 9.51474 11.7578 
446 1 106.42 5.81576 9.69238 15.5476 
367 1 106.42 6.12697 11.5221 13.6238 
465 1 106.42 4.06952 11.6779 15.7085 
352 1 106.42 7.84259 9.52791 14.0002 
356 1 106.42 11.3938 9.73037 13.7232 
371 1 106.42 9.56491 11.5026 13.6932 
354 1 106.42 13.4048 9.71329 11.8763 
360 1 106.42 15.7869 9.75431 13.7029 
375 1 106.42 13.6205 11.9918 13.5566 
457 1 106.42 15.6424 7.94719 15.3871 
357 1 106.42 15.736 8.034 11.7843 
344 1 106.42 19.441 9.67632 13.4371 
359 1 106.42 17.6706 7.76955 13.7598 
379 1 106.42 17.5618 11.6845 13.7844 
363 1 106.42 1.88921 12.078 13.7624 
462 1 106.42 1.87794 13.726 15.7965 
368 1 106.42 3.98179 13.6476 13.9469 
485 1 106.42 4.27324 15.7388 15.5558 
372 1 106.42 7.75672 13.9552 13.4697 
466 1 106.42 5.94314 13.6498 15.4239 
370 1 106.42 9.73827 13.4779 11.791 
469 1 106.42 8.03111 12.0651 15.7815 
489 1 106.42 7.63622 15.7369 15.547 
376 1 106.42 11.5506 14.1835 13.7329 
473 1 106.42 11.5664 12.0905 15.1736 
470 1 106.42 9.71633 13.9864 15.3462 
397 1 106.42 15.609 15.7484 11.9755 
374 1 106.42 13.2867 13.3981 11.9132 
377 1 106.42 15.7456 11.8692 11.9644 
474 1 106.42 13.6784 13.6734 15.6163 
364 1 106.42 19.342 13.8017 13.6993 
378 1 106.42 17.4979 13.7291 11.7429 
380 1 106.42 15.7879 13.8002 13.8532 
382 1 106.42 1.99532 17.6664 11.9131 
381 1 106.42 19.5581 15.7857 11.9493 
385 1 106.42 3.8293 15.7127 12.0535 
383 1 106.42 2.07882 15.8095 13.9693 
388 1 106.42 3.86043 17.9222 13.741 
401 1 106.42 0.091648 19.5591 15.4714 
387 1 106.42 6.18584 16.1798 13.2218 
307 1 106.42 5.96386 19.4004 13.5628 
486 1 106.42 5.88753 17.6031 15.4771 
390 1 106.42 9.75974 17.6661 11.5727 
311 1 106.42 9.89448 19.3643 13.7468 
391 1 106.42 9.5418 15.8294 13.2971 
392 1 106.42 7.93287 17.8249 14.0141 
396 1 106.42 11.7456 17.1242 13.752 
413 1 106.42 11.6102 19.382 15.7939 
394 1 106.42 13.8645 17.5094 12.1408 
313 1 106.42 11.9564 19.4456 12.0631 
315 1 106.42 13.4872 19.5031 13.8873 
395 1 106.42 14.0752 15.8623 13.9487 
399 1 106.42 17.6028 15.9104 13.5986 
400 1 106.42 15.8348 17.8607 13.9563 
301 1 106.42 19.4433 19.5297 11.9035 
384 1 106.42 0.215545 17.6477 13.6708 
2 1 106.42 2.0415 2.32949 19.5432 
425 1 106.42 3.82956 3.81136 15.7806 
402 1 106.42 1.88414 2.0545 15.9511 
5 1 106.42 3.76582 -0.0247987 19.4644 
25 1 106.42 4.33658 3.96453 19.4707 
29 1 106.42 7.636 3.83089 19.5879 
405 1 106.42 3.95442 -0.0663652 15.8267 
408 1 106.42 3.84507 1.86647 17.7069 
427 1 106.42 5.88967 3.86035 17.4561 
412 1 106.42 7.53415 1.85449 17.704 
10 1 106.42 9.42326 1.85781 19.4646 
13 1 106.42 11.7774 0.240978 0.256102 
431 1 106.42 9.50937 3.66899 17.7238 
411 1 106.42 9.59776 19.3356 17.6803 
416 1 106.42 11.667 1.92011 17.3663 
501 2 1.01 11.4236 1.26863 15.5065 
414 1 106.42 13.9964 1.93615 15.7878 
415 1 106.42 13.575 0.0405221 17.6122 
435 1 106.42 13.7494 3.69333 17.7146 
404 1 106.42 19.7381 2.07369 17.7128 
420 1 106.42 15.9023 2.01437 17.7426 
418 1 106.42 17.8445 1.76261 15.463 
419 1 106.42 17.8495 0.171565 18.1685 
423 1 106.42 1.82256 4.15985 17.5934 
422 1 106.42 1.86157 5.86225 15.4114 
428 1 106.42 3.82815 5.71312 17.6657 
426 1 106.42 6.03482 5.81203 15.8647 
26 1 106.42 5.83542 6.04877 19.5841 
432 1 106.42 7.72637 5.74615 17.9194 
430 1 106.42 9.99928 6.00265 16.0566 
449 1 106.42 7.91447 7.7337 15.8455 
30 1 106.42 9.68114 5.71463 19.4183 
451 1 106.42 9.86278 7.64751 17.8422 
33 1 106.42 11.8836 3.91079 19.4222 
37 1 106.42 15.6685 4.18068 19.478 
437 1 106.42 15.678 4.0779 15.8226 
434 1 106.42 13.6676 5.85665 16.0224 
433 1 106.42 12.0311 4.1818 15.916 
436 1 106.42 11.8802 5.99753 18.0885 
440 1 106.42 15.9467 6.04695 17.7296 
439 1 106.42 17.66 3.92598 17.6368 
424 1 106.42 19.6813 5.98723 17.6553 
459 1 106.42 17.7869 7.7887 17.6613 
45 1 106.42 3.98258 7.85073 19.4245 
443 1 106.42 2.1262 7.89584 17.4837 
42 1 106.42 1.96465 9.97492 19.6399 
41 1 106.42 0.263291 7.73839 19.5609 
444 1 106.42 0.292365 9.96009 17.7881 
461 1 106.42 0.089924 11.6995 15.5135 
46 1 106.42 5.78387 9.6826 19.4087 
49 1 106.42 7.70262 7.98173 19.7712 
447 1 106.42 6.04114 7.83762 17.5083 
448 1 106.42 3.80748 9.85595 17.5107 
467 1 106.42 5.89987 11.9113 17.6836 
450 1 106.42 9.7732 9.80776 15.8632 
452 1 106.42 7.95203 9.90188 17.6534 
456 1 106.42 11.824 10.0369 17.5839 
471 1 106.42 10.0253 11.8999 17.6713 
53 1 106.42 11.9145 7.98349 0.136425 
54 1 106.42 13.5447 9.90572 19.5417 
453 1 106.42 11.8341 7.80258 15.8904 
455 1 106.42 13.9642 7.92111 17.6103 
454 1 106.42 13.66 10.0059 15.6667 
460 1 106.42 15.7913 9.7695 17.5982 
77 1 106.42 15.3507 11.6901 19.5317 
58 1 106.42 17.6314 9.53266 19.6179 
458 1 106.42 17.9736 9.72791 15.5667 
479 1 106.42 17.5786 11.6549 17.8319 
463 1 106.42 2.1236 12.0701 17.6649 
61 1 106.42 -0.0327464 11.7156 19.605 
62 1 106.42 1.96157 13.9953 19.6165 
464 1 106.42 0.257057 13.7434 17.7053 
483 1 106.42 1.97535 15.6702 17.5481 
468 1 106.42 4.25876 13.8969 17.4868 
487 1 106.42 5.82924 15.8026 17.6142 
472 1 106.42 7.54377 13.9953 17.7553 
85 1 106.42 4.11386 15.4954 0.156865 
73 1 106.42 11.9577 11.8739 0.0884365 
491 1 106.42 9.79739 15.6437 17.6164 
74 1 106.42 13.7713 13.8601 19.3648 
475 1 106.42 13.4936 11.9545 17.3522 
476 1 106.42 11.6723 13.7623 17.4516 
97 1 106.42 15.7103 15.5923 19.7613 
478 1 106.42 17.84 13.6936 15.8755 
477 1 106.42 15.9571 11.7588 15.8795 
497 1 106.42 15.9872 15.6403 15.8606 
78 1 106.42 17.8808 13.6503 19.4457 
480 1 106.42 15.9123 13.6587 17.7738 
81 1 106.42 0.085831 15.6958 19.5674 
403 1 106.42 1.80247 19.5899 17.7585 
482 1 106.42 2.03619 17.6346 15.7701 
82 1 106.42 2.13005 17.5173 19.5449 
407 1 106.42 6.01412 19.19 17.4328 
86 1 106.42 5.9013 17.7168 19.7639 
488 1 106.42 3.77631 17.5831 17.7663 
492 1 106.42 7.75096 17.1498 17.8624 
409 1 106.42 7.98128 19.709 15.7957 
490 1 106.42 9.80878 17.3522 15.9088 
90 1 106.42 9.71044 17.4986 0.186447 
493 1 106.42 12.0198 15.981 15.9017 
494 1 106.42 13.9331 17.6411 15.8105 
496 1 106.42 11.6507 17.6275 17.9808 
495 1 106.42 13.8835 15.741 17.6739 
417 1 106.42 15.774 19.7012 15.8286 
481 1 106.42 19.3911 15.6494 15.7979 
484 1 106.42 0.0807806 17.6503 17.6628 
498 1 106.42 17.6437 17.7878 15.8308 
499 1 106.42 17.5671 15.8002 17.7694 
500 1 106.42 15.7055 17.8826 17.772 
