ITEM: TIMESTEP
28000
ITEM: NUMBER OF ATOMS
501
ITEM: BOX BOUNDS pp pp pp
0.0000000000000000e+00 1.9629018200000001e+01
0.0000000000000000e+00 1.9629018200000001e+01
0.0000000000000000e+00 1.9629018200000001e+01
ITEM: ATOMS id type mass x y z 
105 1 106.42 3.7829 0.11845 3.89228 
4 1 106.42 0.181493 2.08016 1.59893 
3 1 106.42 2.10895 0.273251 1.91426 
121 1 106.42 19.3882 3.57527 3.73632 
8 1 106.42 4.08526 2.03398 1.97822 
106 1 106.42 5.75719 1.97952 4.03037 
6 1 106.42 5.73231 1.70658 0.0167448 
27 1 106.42 5.77609 4.04171 1.89006 
129 1 106.42 7.84807 3.9465 3.50125 
12 1 106.42 7.7744 1.72989 1.92313 
16 1 106.42 11.7276 2.39807 1.92665 
14 1 106.42 13.7397 1.97322 19.62 
20 1 106.42 15.6586 2.23952 1.96499 
15 1 106.42 13.786 19.5685 1.87126 
113 1 106.42 11.8219 0.161664 3.73534 
118 1 106.42 17.5869 1.90594 4.33591 
18 1 106.42 17.4402 2.23587 0.0496063 
1 1 106.42 0.275917 19.4671 0.1449 
19 1 106.42 17.5737 0.420383 2.1945 
101 1 106.42 19.6233 19.6008 3.62957 
23 1 106.42 2.07805 3.88502 1.97516 
21 1 106.42 19.6085 4.30965 0.103444 
24 1 106.42 0.0147651 5.67961 2.18289 
43 1 106.42 1.74307 7.84343 1.93436 
22 1 106.42 2.10982 5.76934 19.5728 
28 1 106.42 4.00894 6.02725 1.70251 
47 1 106.42 6.0563 8.09281 2.0321 
126 1 106.42 5.86572 5.86321 3.7736 
32 1 106.42 7.84318 6.12722 1.95326 
31 1 106.42 9.62735 3.75237 1.72473 
130 1 106.42 9.8758 5.89311 3.75839 
35 1 106.42 13.7979 3.97339 1.85739 
36 1 106.42 11.6092 5.63924 1.85822 
55 1 106.42 13.7899 7.98504 1.9802 
134 1 106.42 13.8752 5.66308 3.93855 
34 1 106.42 13.9612 6.118 0.311508 
40 1 106.42 15.9172 5.8393 2.07558 
39 1 106.42 17.6332 3.79136 1.92354 
38 1 106.42 17.7777 5.89179 0.0303091 
138 1 106.42 17.8129 5.9306 4.22966 
59 1 106.42 17.9143 7.64793 2.10641 
48 1 106.42 3.52997 9.39875 1.99311 
65 1 106.42 3.99465 11.8954 0.112052 
67 1 106.42 5.71861 11.3469 2.02541 
51 1 106.42 9.81868 7.59779 1.58682 
52 1 106.42 7.88069 9.72694 2.09469 
50 1 106.42 9.81382 10.0575 0.0739166 
56 1 106.42 11.6389 9.67793 2.06023 
75 1 106.42 13.6186 11.7527 2.04343 
60 1 106.42 15.471 9.85411 1.67776 
44 1 106.42 19.3768 9.86659 1.98687 
57 1 106.42 15.8116 7.63807 19.5711 
177 1 106.42 15.8828 11.627 3.84597 
158 1 106.42 17.5509 9.63622 3.72883 
63 1 106.42 2.11189 11.8566 2.04017 
162 1 106.42 1.88275 13.8783 4.06805 
185 1 106.42 3.91986 15.7848 3.82215 
83 1 106.42 2.15127 15.6517 1.81505 
68 1 106.42 3.98328 13.6567 2.21195 
72 1 106.42 7.82008 13.6475 2.07348 
87 1 106.42 6.07849 15.5348 2.15854 
69 1 106.42 7.75961 11.8632 19.5924 
66 1 106.42 5.79938 13.7311 0.308869 
71 1 106.42 9.55665 11.6292 2.35896 
91 1 106.42 9.84325 15.5322 2.08819 
70 1 106.42 9.74002 13.6124 19.5744 
76 1 106.42 11.8037 13.662 1.9636 
93 1 106.42 12.1858 15.6604 0.0470309 
174 1 106.42 13.9201 13.8672 3.90721 
173 1 106.42 11.7604 11.9514 3.96624 
79 1 106.42 17.6744 11.5702 1.69391 
80 1 106.42 15.6794 13.6099 1.69066 
197 1 106.42 15.8235 15.5568 3.87341 
64 1 106.42 0.155326 13.7764 1.92285 
178 1 106.42 17.6969 13.3842 3.81179 
99 1 106.42 17.7987 15.6765 1.65238 
181 1 106.42 0.209785 15.8522 3.80209 
84 1 106.42 0.163558 17.6587 1.87683 
182 1 106.42 2.0928 17.6145 3.5988 
7 1 106.42 5.91322 0.00391564 1.97619 
88 1 106.42 4.07632 17.6001 1.84191 
186 1 106.42 5.64759 17.7818 3.9345 
92 1 106.42 7.65952 17.6551 1.8981 
89 1 106.42 7.82681 15.5122 0.248105 
9 1 106.42 7.93514 19.5438 19.5263 
11 1 106.42 9.66818 19.4402 1.88699 
96 1 106.42 11.63 17.6215 2.20587 
95 1 106.42 13.7673 15.6378 1.95322 
194 1 106.42 13.4863 17.5506 3.8648 
94 1 106.42 14.0455 17.571 0.0426657 
17 1 106.42 15.5735 0.297474 0.013612 
100 1 106.42 15.6661 17.7017 2.0744 
198 1 106.42 17.8559 17.5041 3.73486 
98 1 106.42 17.5379 17.6421 0.0972717 
102 1 106.42 2.29283 2.01309 4.011 
123 1 106.42 2.256 4.28428 5.90412 
202 1 106.42 1.47299 2.14917 7.78997 
108 1 106.42 4.09498 2.26198 5.91781 
112 1 106.42 7.85806 1.96543 5.87867 
206 1 106.42 5.93172 2.24481 7.79774 
205 1 106.42 3.95971 0.16696 7.60769 
110 1 106.42 9.9627 2.10596 3.8582 
210 1 106.42 9.98468 2.01255 7.54878 
116 1 106.42 11.9018 2.09647 6.0087 
114 1 106.42 13.601 2.23657 4.20608 
133 1 106.42 11.799 4.0268 3.89833 
217 1 106.42 15.7869 19.2562 7.85435 
120 1 106.42 15.5252 2.10317 6.17381 
104 1 106.42 0.0393281 1.75541 5.53932 
221 1 106.42 19.516 3.97867 7.8659 
218 1 106.42 17.649 2.03342 7.61908 
122 1 106.42 2.18386 5.9919 3.97068 
124 1 106.42 0.199986 5.48274 5.84304 
128 1 106.42 4.29934 5.9913 6.05355 
125 1 106.42 4.12292 4.16568 3.84762 
127 1 106.42 5.84217 4.05952 5.70354 
145 1 106.42 4.20628 7.71231 3.80532 
153 1 106.42 11.8375 7.52823 3.77689 
131 1 106.42 9.75266 4.17219 5.78256 
132 1 106.42 7.86693 6.09667 5.41353 
151 1 106.42 9.8993 7.8656 5.8353 
229 1 106.42 7.9059 3.86587 7.88147 
249 1 106.42 7.93809 7.93388 7.68605 
135 1 106.42 13.6239 3.98583 6.04303 
136 1 106.42 11.819 5.84964 6.02912 
155 1 106.42 13.6585 7.46713 5.82754 
140 1 106.42 15.6776 5.89597 5.8364 
139 1 106.42 17.5218 4.43864 6.04611 
137 1 106.42 15.717 3.79851 4.08624 
241 1 106.42 0.131114 8.06633 7.88631 
143 1 106.42 2.26203 7.62144 5.98635 
142 1 106.42 1.69285 9.64731 3.95656 
144 1 106.42 19.5872 10.0546 6.11956 
163 1 106.42 2.11696 11.6508 5.8112 
242 1 106.42 1.92809 10.193 7.99272 
146 1 106.42 6.00917 9.76138 3.99452 
147 1 106.42 5.90958 8.00454 5.77993 
148 1 106.42 3.86418 9.80368 6.36127 
165 1 106.42 3.89229 11.4917 3.74859 
169 1 106.42 7.64903 11.7936 4.25032 
167 1 106.42 5.62796 11.652 6.01901 
149 1 106.42 7.9405 7.955 3.89346 
152 1 106.42 8.17629 9.93521 6.01443 
150 1 106.42 10.0167 9.81191 3.87356 
250 1 106.42 9.95133 9.88462 7.74153 
154 1 106.42 13.3563 9.72554 3.97907 
157 1 106.42 15.6366 7.94902 3.84504 
156 1 106.42 11.719 9.69585 5.96306 
175 1 106.42 13.7071 11.9255 5.73785 
254 1 106.42 13.8664 9.60507 7.67985 
141 1 106.42 19.5914 7.60498 4.49293 
159 1 106.42 17.5982 7.70861 6.12008 
160 1 106.42 15.7746 9.90773 5.85077 
179 1 106.42 17.6278 11.4132 5.99399 
161 1 106.42 0.0410621 11.9231 3.74836 
164 1 106.42 0.166953 13.6787 5.73418 
168 1 106.42 3.79799 13.9327 5.84485 
183 1 106.42 1.86696 15.7162 6.01564 
265 1 106.42 3.8888 12.0711 7.90389 
285 1 106.42 3.90636 15.7269 7.96916 
166 1 106.42 5.79574 13.5866 3.9086 
172 1 106.42 7.06165 13.8794 5.83024 
193 1 106.42 11.8159 15.5035 3.80677 
171 1 106.42 9.97061 11.8996 5.60797 
170 1 106.42 9.49315 13.9276 4.06102 
191 1 106.42 9.75259 15.9378 5.87283 
269 1 106.42 7.93024 11.8647 7.69159 
176 1 106.42 11.9115 13.8076 5.59596 
274 1 106.42 13.9229 13.4334 7.89916 
297 1 106.42 15.8872 15.6602 7.81443 
293 1 106.42 12.1485 15.4022 7.69695 
261 1 106.42 19.5422 12.0306 7.71729 
180 1 106.42 15.6959 13.3653 5.81138 
278 1 106.42 17.6178 14.1173 7.58336 
103 1 106.42 2.0073 19.6506 6.03731 
188 1 106.42 3.70382 17.7 5.86161 
184 1 106.42 0.153226 17.7146 5.69186 
109 1 106.42 7.76878 19.4671 3.94283 
187 1 106.42 5.86381 15.9414 6.11147 
189 1 106.42 7.76684 15.8898 4.09258 
107 1 106.42 5.79445 0.106704 5.81212 
192 1 106.42 7.87791 17.916 6.01995 
286 1 106.42 5.99028 17.8847 8.1248 
190 1 106.42 9.59529 17.6269 3.91067 
111 1 106.42 9.8094 19.4788 5.89952 
196 1 106.42 11.5796 17.4442 5.80056 
289 1 106.42 7.82891 15.9089 7.94435 
117 1 106.42 15.2753 0.391972 3.77391 
213 1 106.42 11.9826 19.3972 7.83176 
115 1 106.42 13.6374 19.4117 5.78936 
195 1 106.42 13.881 15.7874 5.73755 
200 1 106.42 15.7771 17.6844 5.54682 
294 1 106.42 13.8731 17.2981 7.70921 
199 1 106.42 17.9903 15.9159 5.75612 
119 1 106.42 17.5304 19.5832 5.74836 
298 1 106.42 17.6906 17.5779 7.95022 
203 1 106.42 1.95145 0.105071 9.54909 
223 1 106.42 1.92214 3.63556 10.0101 
209 1 106.42 7.82275 0.314618 7.73747 
208 1 106.42 4.08691 1.88292 9.66689 
207 1 106.42 5.83777 0.116714 9.34727 
227 1 106.42 6.01794 4.09101 9.7206 
306 1 106.42 5.92245 2.15664 11.6009 
309 1 106.42 7.85737 19.4311 11.7426 
325 1 106.42 4.08401 3.86819 11.5889 
212 1 106.42 7.9143 2.03125 9.73197 
231 1 106.42 9.98272 3.74526 9.86146 
211 1 106.42 9.90661 0.231717 9.95012 
233 1 106.42 11.7987 3.91775 7.95543 
216 1 106.42 11.874 1.90151 9.99576 
214 1 106.42 13.7403 1.75649 7.81809 
220 1 106.42 15.8957 1.74896 9.76544 
235 1 106.42 13.8175 3.81556 10.0716 
204 1 106.42 19.3726 1.72368 9.84626 
239 1 106.42 17.6822 3.59947 9.77589 
222 1 106.42 1.92358 5.8974 7.98147 
225 1 106.42 3.91138 3.84663 8.06284 
322 1 106.42 1.91069 5.79182 11.6018 
345 1 106.42 3.63719 8.00745 11.726 
321 1 106.42 0.0904917 3.63842 11.7453 
228 1 106.42 3.93952 6.05093 9.8332 
226 1 106.42 6.09257 5.98265 7.557 
329 1 106.42 7.85743 3.72227 11.9093 
232 1 106.42 7.76228 5.9741 9.70852 
230 1 106.42 10.0875 5.9354 8.04398 
353 1 106.42 11.6438 7.44065 11.7839 
349 1 106.42 7.99679 7.58623 11.542 
234 1 106.42 13.8014 5.75227 8.0166 
236 1 106.42 12.015 5.73071 10.0591 
337 1 106.42 15.8651 3.88687 11.9301 
238 1 106.42 17.8546 5.91453 7.93278 
237 1 106.42 15.712 3.88045 7.91814 
224 1 106.42 19.6044 5.63703 9.69051 
240 1 106.42 15.7631 6.01079 9.91517 
257 1 106.42 15.6541 7.75761 7.76569 
341 1 106.42 19.5437 7.76894 11.6757 
243 1 106.42 1.4842 7.87044 9.79992 
245 1 106.42 3.78264 7.95678 8.21438 
342 1 106.42 1.88012 10.2096 12.1177 
248 1 106.42 3.88987 9.83205 9.84021 
365 1 106.42 3.80563 11.7092 11.867 
244 1 106.42 0.204591 9.99789 10.0401 
246 1 106.42 6.086 9.67583 7.7066 
247 1 106.42 5.71232 7.84661 9.97697 
267 1 106.42 5.6463 11.7696 9.48151 
252 1 106.42 8.09582 9.87515 9.74369 
369 1 106.42 7.70649 11.8277 11.488 
251 1 106.42 9.67742 7.83471 9.53757 
256 1 106.42 11.6351 9.68641 10.0774 
350 1 106.42 9.50128 9.53551 11.8822 
373 1 106.42 11.6268 11.4847 11.8154 
253 1 106.42 11.927 7.77255 8.03799 
273 1 106.42 12.0034 11.7135 8.07075 
277 1 106.42 15.6261 11.7258 8.00178 
255 1 106.42 13.839 7.85082 9.75148 
260 1 106.42 15.5192 9.52361 9.85729 
275 1 106.42 13.9306 11.77 9.96526 
258 1 106.42 17.5426 9.64834 8.08032 
259 1 106.42 17.6149 7.67287 9.87868 
358 1 106.42 17.6651 10.0508 11.6595 
262 1 106.42 1.71889 13.6244 7.95834 
263 1 106.42 2.16713 11.7633 9.87199 
362 1 106.42 1.89643 13.9254 11.8935 
268 1 106.42 3.63097 13.7128 9.7009 
266 1 106.42 5.88161 13.9572 7.86635 
366 1 106.42 5.95253 13.7984 11.6948 
287 1 106.42 5.64585 15.8358 9.74098 
271 1 106.42 9.81682 11.9266 9.78158 
272 1 106.42 7.81462 13.9365 9.43224 
270 1 106.42 9.91506 13.7972 7.62428 
291 1 106.42 10.04 15.7154 9.45294 
276 1 106.42 11.7273 13.4778 9.89857 
280 1 106.42 15.6337 13.7006 10.0339 
264 1 106.42 19.5999 13.898 10.0084 
279 1 106.42 17.812 12.1166 9.52835 
361 1 106.42 19.5317 12.0963 11.7756 
282 1 106.42 2.01414 17.6618 7.77948 
283 1 106.42 1.97073 15.616 9.68818 
284 1 106.42 0.0428806 17.9965 10.1253 
288 1 106.42 3.58925 17.693 9.89811 
386 1 106.42 5.88785 17.7375 11.3621 
290 1 106.42 9.85591 18.0709 7.87246 
292 1 106.42 8.34958 17.925 9.70169 
296 1 106.42 11.8135 17.5895 9.79456 
389 1 106.42 7.78889 15.6911 11.2248 
393 1 106.42 11.9961 15.5171 11.6014 
215 1 106.42 13.5893 19.5942 9.91915 
295 1 106.42 13.8433 15.5173 9.96543 
281 1 106.42 19.6083 15.689 8.12167 
201 1 106.42 19.4062 19.4199 7.8095 
300 1 106.42 15.6552 17.6593 9.76803 
299 1 106.42 17.6505 15.8993 9.99105 
219 1 106.42 17.497 19.6493 9.84544 
398 1 106.42 17.5858 17.8041 11.7984 
302 1 106.42 2.20339 1.8059 11.6856 
303 1 106.42 2.26081 0.0651433 13.9504 
323 1 106.42 2.08658 4.05689 13.6705 
305 1 106.42 4.03626 0.0354639 11.7097 
308 1 106.42 3.99267 1.9614 13.7809 
406 1 106.42 5.87423 1.96277 15.6614 
312 1 106.42 7.53931 1.99054 13.5875 
429 1 106.42 7.85503 3.75112 15.609 
310 1 106.42 9.72989 2.0379 12.09 
410 1 106.42 9.68019 2.00652 15.8166 
316 1 106.42 11.7547 1.98552 13.8939 
333 1 106.42 11.6023 3.96897 12.0298 
314 1 106.42 13.8141 1.92274 11.8348 
320 1 106.42 15.4897 1.92359 13.9024 
317 1 106.42 15.5285 0.0247149 11.8774 
318 1 106.42 17.5341 2.04397 12.0182 
304 1 106.42 0.124084 2.02907 13.586 
319 1 106.42 17.4541 0.186575 13.604 
339 1 106.42 17.4533 3.67258 14.0162 
421 1 106.42 19.5335 3.81595 15.6494 
328 1 106.42 3.83651 6.08725 13.7351 
324 1 106.42 19.5516 5.76698 13.6092 
327 1 106.42 5.63799 4.10444 13.7039 
326 1 106.42 5.56805 5.87294 11.7487 
347 1 106.42 5.69756 7.92343 13.7503 
330 1 106.42 9.68948 5.65195 11.6553 
331 1 106.42 9.92084 4.01511 14.1738 
332 1 106.42 7.77351 6.01456 14.0564 
336 1 106.42 11.7337 5.82277 14.0193 
351 1 106.42 9.59434 7.80329 14.07 
335 1 106.42 13.7715 4.19354 13.6118 
334 1 106.42 13.8891 5.96588 11.8368 
355 1 106.42 13.5405 7.80052 13.8344 
340 1 106.42 15.5177 5.91081 13.7073 
338 1 106.42 17.6928 5.69927 11.9302 
438 1 106.42 17.7866 5.82236 15.4995 
441 1 106.42 0.159482 7.71299 15.5659 
343 1 106.42 1.77454 8.03167 13.5178 
348 1 106.42 3.91451 10.0458 13.7046 
442 1 106.42 1.91376 9.9429 15.48 
445 1 106.42 3.81996 7.66395 15.7312 
346 1 106.42 6.00173 9.57453 11.7587 
446 1 106.42 5.81434 9.6894 15.5708 
367 1 106.42 6.13821 11.5177 13.6158 
465 1 106.42 4.06951 11.6948 15.7274 
352 1 106.42 7.84403 9.53397 13.994 
356 1 106.42 11.3752 9.69543 13.7362 
371 1 106.42 9.5796 11.5022 13.6778 
354 1 106.42 13.4226 9.68435 11.8732 
360 1 106.42 15.7975 9.74598 13.6993 
375 1 106.42 13.6258 11.9774 13.5486 
457 1 106.42 15.6312 7.93154 15.3829 
357 1 106.42 15.7305 8.04638 11.7828 
344 1 106.42 19.4298 9.651 13.4233 
359 1 106.42 17.6806 7.72162 13.7263 
379 1 106.42 17.5657 11.7 13.7684 
363 1 106.42 1.8742 12.0841 13.7827 
462 1 106.42 1.85338 13.723 15.8248 
368 1 106.42 4.02465 13.6188 13.9316 
485 1 106.42 4.25527 15.7322 15.5548 
372 1 106.42 7.74259 13.9612 13.4706 
466 1 106.42 5.91528 13.6535 15.3942 
370 1 106.42 9.7526 13.4968 11.7901 
469 1 106.42 7.99388 12.0817 15.8356 
489 1 106.42 7.59545 15.758 15.5804 
376 1 106.42 11.5475 14.1916 13.7615 
473 1 106.42 11.572 12.0212 15.1928 
470 1 106.42 9.70763 13.9461 15.3131 
397 1 106.42 15.6375 15.7457 11.972 
374 1 106.42 13.3463 13.4303 11.882 
377 1 106.42 15.7942 11.8373 11.9581 
474 1 106.42 13.6496 13.7162 15.6072 
364 1 106.42 19.3216 13.8053 13.7392 
378 1 106.42 17.4754 13.6914 11.7326 
380 1 106.42 15.7688 13.8096 13.8909 
382 1 106.42 2.01785 17.6822 11.8853 
381 1 106.42 19.5665 15.7828 11.9441 
385 1 106.42 3.83111 15.6739 12.0489 
383 1 106.42 2.07458 15.8027 13.9732 
388 1 106.42 3.89573 17.9248 13.706 
401 1 106.42 0.0436745 19.5616 15.4891 
387 1 106.42 6.19959 16.1949 13.2288 
307 1 106.42 5.99146 19.3821 13.5201 
486 1 106.42 5.94912 17.5948 15.509 
390 1 106.42 9.77483 17.6811 11.5523 
311 1 106.42 9.89656 19.3691 13.7791 
391 1 106.42 9.57346 15.8426 13.2707 
392 1 106.42 7.93204 17.8342 13.9905 
396 1 106.42 11.795 17.1259 13.7371 
413 1 106.42 11.6334 19.3996 15.8195 
394 1 106.42 13.8769 17.5413 12.1237 
313 1 106.42 11.9634 19.466 12.0845 
315 1 106.42 13.4661 19.4893 13.9251 
395 1 106.42 14.0629 15.8213 13.9696 
399 1 106.42 17.5626 15.9378 13.6382 
400 1 106.42 15.8574 17.847 13.9382 
301 1 106.42 19.4866 19.5583 11.9302 
384 1 106.42 0.233817 17.6478 13.702 
2 1 106.42 2.04157 2.33254 19.5543 
425 1 106.42 3.83428 3.82259 15.7567 
402 1 106.42 1.87451 2.03433 15.9577 
5 1 106.42 3.79263 19.5426 19.4777 
25 1 106.42 4.33785 3.9878 19.5206 
29 1 106.42 7.62015 3.84062 19.6097 
405 1 106.42 3.92853 19.5474 15.7978 
408 1 106.42 3.84619 1.86655 17.712 
427 1 106.42 5.90715 3.86922 17.4605 
412 1 106.42 7.52812 1.8974 17.6552 
10 1 106.42 9.42787 1.85413 19.4657 
13 1 106.42 11.8062 0.222467 0.282306 
431 1 106.42 9.51718 3.6982 17.7305 
411 1 106.42 9.60726 19.2922 17.7333 
416 1 106.42 11.7016 1.90287 17.3336 
501 2 1.01 12.084 1.7211 15.6393 
414 1 106.42 13.9751 1.93657 15.8028 
415 1 106.42 13.578 0.047678 17.5853 
435 1 106.42 13.725 3.72495 17.7219 
404 1 106.42 0.132079 2.07881 17.725 
420 1 106.42 15.89 2.01288 17.7368 
418 1 106.42 17.829 1.73851 15.4389 
419 1 106.42 17.8311 0.133522 18.1605 
423 1 106.42 1.80774 4.14594 17.5766 
422 1 106.42 1.88195 5.87888 15.3812 
428 1 106.42 3.84562 5.69679 17.6633 
426 1 106.42 6.02183 5.80603 15.8522 
26 1 106.42 5.85307 6.00637 19.5853 
432 1 106.42 7.77295 5.80372 17.9332 
430 1 106.42 10.0215 5.99854 16.0354 
449 1 106.42 7.92425 7.75332 15.8624 
30 1 106.42 9.70189 5.71779 19.4596 
451 1 106.42 9.86673 7.68993 17.8196 
33 1 106.42 11.8809 3.86988 19.4408 
37 1 106.42 15.6741 4.16214 19.4883 
437 1 106.42 15.6839 4.08561 15.8401 
434 1 106.42 13.6928 5.83412 16.0063 
433 1 106.42 12.0136 4.1865 15.9015 
436 1 106.42 11.8841 6.02497 18.0504 
440 1 106.42 15.9701 6.02678 17.7569 
439 1 106.42 17.6756 3.92306 17.6044 
424 1 106.42 0.0828778 6.00958 17.6593 
459 1 106.42 17.8017 7.83072 17.6351 
45 1 106.42 3.96922 7.8007 19.4013 
443 1 106.42 2.14171 7.88676 17.4837 
42 1 106.42 1.94681 9.96473 0.024957 
41 1 106.42 0.256801 7.70815 19.576 
444 1 106.42 0.276371 9.95383 17.7522 
461 1 106.42 0.0196299 11.7151 15.4921 
46 1 106.42 5.79816 9.72819 19.427 
49 1 106.42 7.71787 7.98 0.188709 
447 1 106.42 5.98133 7.83661 17.4934 
448 1 106.42 3.7939 9.86701 17.5028 
467 1 106.42 5.94614 11.9344 17.6664 
450 1 106.42 9.78204 9.81178 15.8749 
452 1 106.42 7.94732 9.89763 17.6735 
456 1 106.42 11.8343 10.0139 17.5646 
471 1 106.42 10.0283 11.935 17.6653 
53 1 106.42 11.9238 7.99406 0.135407 
54 1 106.42 13.5519 9.87787 19.5576 
453 1 106.42 11.8079 7.77745 15.9288 
455 1 106.42 13.9508 7.89516 17.5937 
454 1 106.42 13.7036 10.081 15.6383 
460 1 106.42 15.8117 9.73015 17.6117 
77 1 106.42 15.3766 11.7014 19.5704 
58 1 106.42 17.6407 9.51071 19.6341 
458 1 106.42 18.0021 9.72642 15.5264 
479 1 106.42 17.6047 11.6904 17.8076 
463 1 106.42 2.08565 12.0477 17.6287 
61 1 106.42 19.596 11.6828 19.6211 
62 1 106.42 1.9942 13.9413 0.0306391 
464 1 106.42 0.243024 13.7454 17.705 
483 1 106.42 1.99087 15.6888 17.5739 
468 1 106.42 4.22824 13.9007 17.4996 
487 1 106.42 5.7909 15.8312 17.6509 
472 1 106.42 7.54227 14.0063 17.7486 
85 1 106.42 4.11811 15.4845 0.150232 
73 1 106.42 11.962 11.8639 0.0933002 
491 1 106.42 9.81373 15.6397 17.6088 
74 1 106.42 13.7483 13.8716 19.4139 
475 1 106.42 13.493 11.8988 17.3616 
476 1 106.42 11.6335 13.7425 17.4231 
97 1 106.42 15.7248 15.6072 0.155249 
478 1 106.42 17.8056 13.6618 15.8609 
477 1 106.42 15.9575 11.7201 15.8362 
497 1 106.42 15.9427 15.6716 15.8444 
78 1 106.42 17.8839 13.6551 19.4527 
480 1 106.42 15.9121 13.6618 17.7616 
81 1 106.42 0.0615187 15.6638 19.5511 
403 1 106.42 1.79624 19.5989 17.7515 
482 1 106.42 2.00538 17.592 15.7856 
82 1 106.42 2.14327 17.5357 19.538 
407 1 106.42 5.98803 19.199 17.4615 
86 1 106.42 5.86311 17.6626 0.188545 
488 1 106.42 3.71938 17.5686 17.7624 
492 1 106.42 7.76878 17.1271 17.9316 
409 1 106.42 7.95115 0.123836 15.7718 
490 1 106.42 9.8052 17.3615 15.855 
90 1 106.42 9.74624 17.5531 0.214929 
493 1 106.42 12.0201 15.9595 15.889 
494 1 106.42 13.9308 17.6542 15.8204 
496 1 106.42 11.6321 17.6425 17.9942 
495 1 106.42 13.8794 15.7373 17.6798 
417 1 106.42 15.7488 0.118936 15.8315 
481 1 106.42 19.3846 15.6654 15.7558 
484 1 106.42 0.0895678 17.6556 17.6573 
498 1 106.42 17.6406 17.757 15.8377 
499 1 106.42 17.5457 15.8195 17.779 
500 1 106.42 15.7205 17.8862 17.7851 
