ITEM: TIMESTEP
29400
ITEM: NUMBER OF ATOMS
501
ITEM: BOX BOUNDS pp pp pp
0.0000000000000000e+00 1.9629018200000001e+01
0.0000000000000000e+00 1.9629018200000001e+01
0.0000000000000000e+00 1.9629018200000001e+01
ITEM: ATOMS id type mass x y z 
3 1 106.42 2.11798 0.120476 1.87206 
125 1 106.42 3.94654 3.91391 3.82052 
102 1 106.42 1.7469 2.1704 3.76896 
25 1 106.42 3.87733 3.78487 0.0401234 
8 1 106.42 3.97271 1.89506 1.86101 
12 1 106.42 7.53655 1.91301 1.69663 
7 1 106.42 5.63818 -0.0154396 2.1527 
106 1 106.42 6.06345 2.01123 3.95635 
31 1 106.42 9.65653 3.7987 1.90393 
113 1 106.42 11.8325 -0.0315001 3.79874 
11 1 106.42 9.72896 0.601097 1.97041 
109 1 106.42 7.97289 0.370526 3.93251 
16 1 106.42 11.6987 1.93141 2.09634 
20 1 106.42 15.2719 2.0357 1.88145 
114 1 106.42 13.5246 2.13969 3.81659 
4 1 106.42 19.6038 1.97219 1.91648 
17 1 106.42 16.0002 0.0459194 0.0985443 
19 1 106.42 17.7146 0.166177 1.98353 
39 1 106.42 17.4922 3.76155 2.10273 
23 1 106.42 1.68203 3.85901 1.74676 
43 1 106.42 1.86577 7.71197 2.00854 
122 1 106.42 1.94051 5.56992 3.69952 
141 1 106.42 0.0249093 7.69772 3.81254 
41 1 106.42 0.122037 7.62346 0.116611 
27 1 106.42 5.9158 3.85581 2.04456 
28 1 106.42 4.03402 6.17874 1.85024 
126 1 106.42 5.83313 6.1164 3.76351 
32 1 106.42 7.84459 5.75679 1.80776 
149 1 106.42 7.6816 7.74391 3.9264 
129 1 106.42 7.99418 4.16657 3.80813 
51 1 106.42 9.8195 7.81345 2.17217 
133 1 106.42 11.6093 4.33073 3.83238 
30 1 106.42 9.72631 5.88003 0.00272969 
36 1 106.42 11.9551 5.91129 1.56247 
35 1 106.42 13.6659 4.06665 1.6648 
134 1 106.42 13.8103 5.95463 3.62834 
153 1 106.42 12.0745 7.62756 3.64152 
24 1 106.42 19.4348 5.64919 2.03655 
40 1 106.42 15.6873 5.99785 1.91738 
59 1 106.42 17.7191 7.86441 2.18369 
57 1 106.42 15.8649 7.80167 0.0482831 
42 1 106.42 2.04754 9.57452 -0.076486 
44 1 106.42 0.152507 9.50094 1.9381 
61 1 106.42 0.0220838 11.7435 -0.0196057 
63 1 106.42 1.80752 11.3937 1.95928 
48 1 106.42 3.93537 9.81938 1.62973 
47 1 106.42 5.9988 8.00765 1.87784 
67 1 106.42 5.71906 11.7718 2.07893 
49 1 106.42 7.88844 8.04552 0.0505888 
52 1 106.42 8.03539 10.1545 1.93491 
50 1 106.42 9.88564 9.89492 0.0950909 
56 1 106.42 11.8042 9.90055 1.87262 
73 1 106.42 11.7367 11.6209 -0.102087 
173 1 106.42 11.6128 11.6236 3.95566 
69 1 106.42 8.00867 11.8088 0.0898001 
55 1 106.42 13.8279 7.99045 1.91502 
75 1 106.42 13.7856 11.477 1.90177 
60 1 106.42 15.9582 9.94316 1.7225 
157 1 106.42 15.8365 7.90222 3.85134 
79 1 106.42 17.587 11.8047 1.79628 
161 1 106.42 19.3675 11.5836 3.86268 
64 1 106.42 0.226487 13.5965 2.10193 
62 1 106.42 1.90721 13.3626 -0.00574788 
68 1 106.42 3.67271 13.7038 2.06289 
85 1 106.42 3.7114 15.5028 0.262 
66 1 106.42 6.07245 13.758 0.148122 
166 1 106.42 5.74697 13.6952 3.63877 
71 1 106.42 10.0475 11.9663 1.7867 
72 1 106.42 7.93195 13.6475 2.15553 
89 1 106.42 8.13949 15.3955 0.223056 
76 1 106.42 11.7879 13.8112 1.9599 
169 1 106.42 8.12667 11.8089 3.83642 
70 1 106.42 10.1757 13.6543 -0.0406416 
177 1 106.42 15.6758 11.6811 3.89546 
95 1 106.42 13.9301 15.6697 2.07886 
74 1 106.42 13.5928 13.5704 0.18833 
80 1 106.42 15.8741 13.9151 2.16021 
178 1 106.42 17.7545 13.831 3.94451 
99 1 106.42 17.88 15.6444 2.37014 
97 1 106.42 15.9379 15.7056 0.267185 
78 1 106.42 17.635 13.7709 0.32136 
83 1 106.42 1.95513 15.7177 2.11078 
1 1 106.42 0.017997 19.6024 -0.0430966 
101 1 106.42 0.203059 19.7335 3.69143 
84 1 106.42 -0.0139783 17.6258 1.89849 
88 1 106.42 3.75595 17.6711 2.32915 
82 1 106.42 1.89445 17.5576 0.161543 
87 1 106.42 5.75884 15.836 2.16817 
86 1 106.42 5.9253 17.2866 0.207427 
5 1 106.42 3.96123 19.2572 0.057494 
9 1 106.42 7.35069 19.406 0.24164 
91 1 106.42 9.92017 15.7895 2.04692 
92 1 106.42 8.03792 17.7183 2.00945 
190 1 106.42 10.1045 17.8967 3.95144 
90 1 106.42 9.97604 17.8013 0.291726 
13 1 106.42 11.8464 19.5851 0.220398 
193 1 106.42 11.7721 15.8855 3.9255 
96 1 106.42 12.1953 17.6273 1.93926 
15 1 106.42 13.8525 19.5427 2.0976 
94 1 106.42 13.8182 17.7183 0.0675727 
100 1 106.42 15.7144 17.5824 2.11703 
198 1 106.42 17.6531 18.0094 3.79946 
98 1 106.42 17.7096 17.8072 0.385966 
202 1 106.42 2.2671 1.91958 7.72019 
104 1 106.42 0.259557 2.54935 5.99532 
103 1 106.42 1.96017 0.196207 5.61462 
108 1 106.42 3.81773 2.02879 5.76956 
205 1 106.42 3.77595 0.0745019 7.92521 
105 1 106.42 4.08718 0.155371 4.20417 
206 1 106.42 5.87224 2.21423 7.68544 
107 1 106.42 6.11868 0.269538 6.1324 
127 1 106.42 5.81025 3.88235 5.72942 
110 1 106.42 9.7823 2.16836 3.90253 
209 1 106.42 8.22947 0.328312 7.58675 
112 1 106.42 8.09981 2.19015 5.7867 
111 1 106.42 10.0751 0.264367 5.76121 
116 1 106.42 12.0134 1.95557 5.98359 
120 1 106.42 15.487 1.83112 6.08946 
137 1 106.42 15.5125 3.71809 4.01035 
117 1 106.42 15.8806 0.267108 4.06068 
121 1 106.42 19.6129 3.86693 3.97723 
118 1 106.42 17.8389 2.04652 4.06667 
218 1 106.42 17.6417 1.62053 7.79918 
139 1 106.42 17.5685 3.71836 6.22722 
201 1 106.42 19.7654 0.194844 7.6585 
221 1 106.42 19.7249 3.86396 7.93051 
123 1 106.42 2.06886 4.06776 5.78467 
124 1 106.42 -0.0614996 5.82224 5.95685 
143 1 106.42 1.84236 7.6443 5.86907 
241 1 106.42 0.0442429 7.71958 7.78718 
245 1 106.42 3.80641 7.78529 7.63119 
128 1 106.42 4.09449 5.87138 5.79419 
132 1 106.42 7.71546 6.04615 5.87822 
130 1 106.42 9.56536 6.0621 4.06811 
131 1 106.42 10.0035 3.90121 5.93121 
136 1 106.42 11.6966 5.94518 6.07984 
151 1 106.42 9.74693 7.77279 6.06163 
230 1 106.42 9.32389 6.02894 7.68219 
135 1 106.42 13.7604 4.06117 5.81066 
140 1 106.42 15.4214 6.12004 5.81873 
138 1 106.42 17.514 5.60236 3.96516 
159 1 106.42 17.7967 7.79567 5.72508 
145 1 106.42 3.61163 7.90904 4.11555 
165 1 106.42 3.58449 11.6069 4.07379 
142 1 106.42 1.86432 9.83942 4.05894 
148 1 106.42 3.58715 9.73459 5.68452 
265 1 106.42 3.76766 11.5888 7.57892 
146 1 106.42 5.86407 9.95899 4.06231 
147 1 106.42 5.69975 7.90095 5.87507 
246 1 106.42 5.67273 10.0771 7.91033 
249 1 106.42 7.68293 8.10695 7.83593 
150 1 106.42 9.78427 9.62154 3.99221 
152 1 106.42 7.80142 9.80581 5.76119 
156 1 106.42 11.4713 9.98822 5.90771 
253 1 106.42 11.4675 7.94868 7.81091 
155 1 106.42 13.3144 7.9715 5.87944 
257 1 106.42 15.5558 7.93702 7.5853 
154 1 106.42 13.5978 9.89476 4.00694 
254 1 106.42 13.5513 9.78911 7.93506 
160 1 106.42 15.4605 9.738 5.69079 
175 1 106.42 13.6432 11.8266 5.97583 
158 1 106.42 17.5605 9.91384 4.02304 
144 1 106.42 19.5085 9.53575 5.75968 
277 1 106.42 15.7302 11.7929 7.67704 
163 1 106.42 1.55655 11.909 5.88716 
162 1 106.42 2.04225 13.6086 4.08718 
262 1 106.42 1.88154 13.8592 7.54798 
167 1 106.42 5.69568 12.0046 5.58823 
168 1 106.42 4.01631 13.8396 5.81307 
172 1 106.42 7.96277 13.7943 5.72235 
269 1 106.42 7.52118 11.8069 7.56101 
171 1 106.42 9.77326 11.7159 6.0926 
170 1 106.42 10.0424 13.8367 4.11672 
270 1 106.42 9.56275 13.8508 7.52651 
176 1 106.42 11.7287 13.8215 6.09892 
174 1 106.42 13.5969 13.4897 4.03338 
195 1 106.42 13.8097 15.4728 5.92857 
179 1 106.42 17.7053 11.9327 5.77383 
164 1 106.42 19.2696 13.8538 5.97405 
180 1 106.42 15.8339 13.9517 5.96033 
181 1 106.42 0.0929414 15.8736 4.14566 
182 1 106.42 2.11684 17.8059 4.1999 
183 1 106.42 2.15388 15.9116 5.85788 
184 1 106.42 -0.0383154 17.7333 5.80805 
282 1 106.42 1.59218 17.8557 7.79035 
281 1 106.42 0.0795831 15.6869 7.72301 
285 1 106.42 3.70277 15.8644 7.57442 
185 1 106.42 3.96314 15.7851 4.17719 
188 1 106.42 4.07605 17.9511 6.08413 
186 1 106.42 6.09098 17.8425 4.04576 
187 1 106.42 5.85264 15.8495 5.92881 
192 1 106.42 7.89832 17.758 6.00839 
189 1 106.42 8.02178 15.6929 4.06196 
191 1 106.42 9.78235 16.0688 5.92512 
290 1 106.42 10.035 17.7468 7.86727 
194 1 106.42 13.9057 17.7648 4.12445 
196 1 106.42 12.0097 17.7906 5.93378 
115 1 106.42 13.8728 19.6726 5.94956 
294 1 106.42 13.7115 17.7094 7.66788 
197 1 106.42 15.8042 15.8467 3.96765 
200 1 106.42 15.6936 17.675 5.86893 
199 1 106.42 17.5773 15.8641 5.9116 
119 1 106.42 17.824 19.3198 5.80564 
217 1 106.42 15.8477 19.6025 7.88699 
223 1 106.42 1.83651 3.81551 9.64585 
302 1 106.42 2.10997 1.87315 11.6795 
208 1 106.42 3.94218 1.91575 9.72253 
325 1 106.42 3.97422 3.83959 11.6395 
204 1 106.42 0.0733362 1.93747 9.82191 
207 1 106.42 6.10534 0.284088 9.8435 
306 1 106.42 5.78067 1.95119 11.771 
210 1 106.42 9.97729 2.03663 8.12518 
229 1 106.42 7.95741 3.72353 7.92093 
212 1 106.42 8.13082 2.09609 9.94531 
211 1 106.42 10.1573 0.00384325 9.68083 
214 1 106.42 13.8424 1.93132 7.97938 
233 1 106.42 12 3.86116 7.82871 
216 1 106.42 11.9369 2.13683 9.83176 
235 1 106.42 13.7731 3.7383 9.81219 
220 1 106.42 15.6651 1.85218 9.81644 
213 1 106.42 11.9013 0.0831553 8.07985 
321 1 106.42 19.3021 3.60182 11.645 
239 1 106.42 17.4433 3.75121 9.76059 
318 1 106.42 17.5931 1.5269 11.5601 
225 1 106.42 3.99293 4.02934 7.74409 
222 1 106.42 1.71246 5.95227 7.97662 
322 1 106.42 2.13176 5.96481 11.8239 
228 1 106.42 3.88304 5.70287 9.60198 
224 1 106.42 0.0938651 5.6607 10.1732 
226 1 106.42 5.84676 5.8593 8.01682 
227 1 106.42 5.88893 3.86031 9.80225 
247 1 106.42 5.99384 7.73619 9.67212 
326 1 106.42 5.82933 5.87557 11.6192 
231 1 106.42 9.74314 4.04323 9.69781 
232 1 106.42 8.05476 5.99584 10.0042 
251 1 106.42 9.92689 7.78221 10.0255 
236 1 106.42 11.4894 5.82986 9.44397 
237 1 106.42 15.5115 4.11459 7.79051 
234 1 106.42 13.703 6.10995 7.88266 
255 1 106.42 13.5101 7.72719 10.014 
240 1 106.42 15.4859 5.66435 9.81055 
334 1 106.42 13.6494 5.5714 11.7348 
238 1 106.42 17.5781 5.87569 7.90412 
341 1 106.42 19.5232 7.65736 11.581 
259 1 106.42 17.6267 7.87047 9.71447 
338 1 106.42 17.4048 5.75003 11.3882 
242 1 106.42 2.00279 9.77907 8.06466 
345 1 106.42 4.04888 8.18831 11.796 
243 1 106.42 2.20534 8.02743 10.0718 
248 1 106.42 4.05954 10.1252 9.76077 
346 1 106.42 5.98689 10.0836 11.5655 
250 1 106.42 9.76967 9.69851 8.0525 
252 1 106.42 7.72034 9.75118 9.91449 
256 1 106.42 11.8384 9.83222 9.9739 
273 1 106.42 11.6521 11.8351 7.98354 
260 1 106.42 15.562 9.78792 9.52944 
275 1 106.42 13.6129 11.5449 10.0344 
377 1 106.42 15.5438 11.5314 11.679 
261 1 106.42 19.5638 11.5872 7.92374 
244 1 106.42 19.4946 9.67315 9.67538 
258 1 106.42 17.7033 9.9205 7.67916 
358 1 106.42 17.6713 9.56764 11.4229 
263 1 106.42 1.85619 11.8266 10.2143 
268 1 106.42 3.902 13.8664 9.74289 
283 1 106.42 1.73832 15.5466 10.2435 
267 1 106.42 6.07269 11.921 9.73708 
266 1 106.42 5.67454 13.872 7.85444 
366 1 106.42 5.99534 13.9652 11.4106 
365 1 106.42 4.1669 11.8899 11.5847 
385 1 106.42 3.92424 15.7207 11.6652 
369 1 106.42 8.01898 12.0046 11.6693 
272 1 106.42 7.93123 13.6267 9.60887 
389 1 106.42 8.0319 15.584 11.4902 
271 1 106.42 9.78768 11.8735 9.46148 
276 1 106.42 11.6905 13.6912 9.66133 
393 1 106.42 11.6641 15.561 11.719 
291 1 106.42 9.80581 15.6757 9.65982 
370 1 106.42 9.87882 13.7972 11.6477 
293 1 106.42 11.7975 15.7426 7.88724 
274 1 106.42 13.8067 13.7227 8.01317 
295 1 106.42 13.847 15.521 9.84165 
278 1 106.42 17.7526 13.5482 8.03071 
280 1 106.42 15.971 13.6707 9.54362 
264 1 106.42 19.5171 13.4824 9.72859 
279 1 106.42 17.527 11.7035 9.91054 
299 1 106.42 17.7333 15.5533 9.90753 
203 1 106.42 1.78431 19.5111 9.88623 
288 1 106.42 3.76798 17.4591 9.65446 
305 1 106.42 4.04352 19.3729 11.3611 
286 1 106.42 5.55771 17.6991 7.82211 
287 1 106.42 5.78102 15.7286 9.68706 
386 1 106.42 6.17162 17.8424 11.5185 
292 1 106.42 7.71572 18.0416 9.50563 
289 1 106.42 7.81009 15.8665 7.8021 
390 1 106.42 10.2657 17.6296 11.3903 
297 1 106.42 15.5592 15.8434 7.85199 
296 1 106.42 12.2024 17.4622 9.66598 
215 1 106.42 13.813 19.6479 9.92631 
300 1 106.42 15.6295 17.4992 10.0847 
394 1 106.42 13.5859 17.5549 11.7956 
219 1 106.42 17.8805 19.4632 9.73563 
284 1 106.42 19.619 17.4385 9.87573 
298 1 106.42 17.8863 17.5596 7.87376 
304 1 106.42 0.347484 2.08366 13.9356 
308 1 106.42 3.92922 1.97268 13.6484 
421 1 106.42 0.23177 3.87786 15.5153 
301 1 106.42 0.240097 0.156603 11.8167 
402 1 106.42 2.12203 1.73599 15.6302 
406 1 106.42 5.54606 1.97387 15.5864 
327 1 106.42 6.04048 3.69725 13.5785 
307 1 106.42 5.95751 0.176342 13.3948 
409 1 106.42 7.385 -0.0378247 15.6427 
309 1 106.42 8.33132 0.147401 11.8602 
312 1 106.42 8.0767 1.9731 13.8279 
329 1 106.42 7.96193 3.76441 11.8029 
310 1 106.42 10.0471 1.99424 11.8398 
311 1 106.42 10.0189 0.129816 13.8433 
313 1 106.42 11.7859 0.0320425 11.7765 
501 2 1.01 10.3248 3.12151 15.6316 
316 1 106.42 11.7755 1.83196 13.9952 
314 1 106.42 13.565 1.88942 11.9565 
317 1 106.42 15.6527 0.102798 11.8831 
337 1 106.42 15.547 3.71335 11.8176 
335 1 106.42 13.6985 3.66234 13.9448 
320 1 106.42 15.8993 1.8773 13.7924 
323 1 106.42 2.03122 4.0048 13.4752 
422 1 106.42 1.93116 5.8356 15.7085 
343 1 106.42 2.00198 7.52827 13.5846 
425 1 106.42 3.80241 4.02501 15.5447 
349 1 106.42 7.45022 8.01255 11.9338 
429 1 106.42 7.69795 4.36168 15.6848 
328 1 106.42 4.0764 5.79286 13.5899 
332 1 106.42 7.62714 5.73126 13.3329 
426 1 106.42 5.84403 6.16448 15.4581 
330 1 106.42 9.79553 6.00746 11.9669 
353 1 106.42 11.5993 7.82067 11.9035 
333 1 106.42 11.8658 3.99565 11.9519 
331 1 106.42 9.74183 3.89378 13.7736 
351 1 106.42 9.57439 7.48203 13.9186 
336 1 106.42 12.0989 6.06622 13.8693 
340 1 106.42 15.5789 5.91833 13.5934 
357 1 106.42 15.7059 7.69172 11.6659 
434 1 106.42 13.9819 5.88965 15.5651 
339 1 106.42 17.6819 3.97822 13.7475 
324 1 106.42 19.7078 5.61702 13.454 
359 1 106.42 17.6683 7.48502 13.7495 
342 1 106.42 2.05566 9.76991 12.0038 
442 1 106.42 1.89399 9.81838 15.2794 
445 1 106.42 3.84524 8.1341 15.5261 
347 1 106.42 5.79349 7.96748 13.559 
348 1 106.42 4.04121 10.0538 13.8741 
352 1 106.42 7.64299 9.7757 13.8533 
350 1 106.42 9.89466 9.56861 11.8925 
356 1 106.42 11.7269 9.36999 13.8622 
473 1 106.42 11.7436 11.5003 15.6644 
355 1 106.42 13.8846 8.02735 14.1623 
354 1 106.42 13.7739 9.51032 11.9814 
454 1 106.42 13.7697 9.85723 15.7372 
375 1 106.42 13.9262 11.8124 13.5668 
360 1 106.42 15.939 9.66018 13.6004 
344 1 106.42 19.408 9.66704 13.5594 
458 1 106.42 17.5593 9.60913 15.4012 
477 1 106.42 15.9673 11.5806 15.703 
362 1 106.42 1.9625 13.6399 12.0868 
363 1 106.42 1.92415 11.9292 14.2039 
361 1 106.42 -0.0268454 11.7746 12.1009 
383 1 106.42 1.93551 15.5821 13.6617 
367 1 106.42 6.14667 11.9673 13.8489 
368 1 106.42 4.06329 13.7212 13.694 
372 1 106.42 7.73986 13.837 13.5189 
466 1 106.42 5.89262 13.898 15.7662 
373 1 106.42 11.7498 12.016 12.2665 
371 1 106.42 9.46064 11.841 13.6319 
470 1 106.42 9.56098 13.7211 15.4826 
376 1 106.42 11.8453 13.8388 13.8329 
374 1 106.42 14.2881 13.7895 11.9023 
380 1 106.42 15.6298 13.6023 13.9119 
395 1 106.42 13.6963 15.6501 13.5364 
378 1 106.42 17.7767 13.9068 11.9897 
379 1 106.42 17.6604 11.8333 13.507 
461 1 106.42 19.4353 11.8708 15.7066 
364 1 106.42 19.5131 13.9641 13.8464 
397 1 106.42 15.9531 15.7438 11.9071 
303 1 106.42 2.19296 19.3957 13.6686 
382 1 106.42 1.91414 17.662 11.8784 
384 1 106.42 0.0310133 17.7958 13.7497 
388 1 106.42 4.27705 17.465 13.5224 
485 1 106.42 3.9139 15.7178 15.5092 
387 1 106.42 6.00475 15.6354 13.8316 
405 1 106.42 4.05262 19.5092 15.4959 
391 1 106.42 9.72602 15.7299 13.5454 
392 1 106.42 8.0064 17.6612 13.3008 
490 1 106.42 9.73266 17.505 15.4418 
396 1 106.42 11.9639 17.7102 13.7057 
315 1 106.42 13.8692 19.6852 14.0894 
400 1 106.42 15.3697 17.6653 13.8359 
319 1 106.42 17.8894 19.4572 13.8542 
398 1 106.42 17.7568 17.7243 11.7556 
381 1 106.42 19.5473 15.7443 11.9634 
399 1 106.42 17.5321 15.709 14.0303 
481 1 106.42 19.5601 15.7704 15.8651 
2 1 106.42 2.16196 1.79349 19.4711 
423 1 106.42 2.10923 3.73705 17.5164 
403 1 106.42 2.01968 0.0253443 17.5641 
408 1 106.42 3.95096 2.01996 17.4348 
6 1 106.42 5.78983 1.8639 19.4591 
29 1 106.42 7.73623 3.69686 19.4492 
412 1 106.42 7.84161 1.98202 17.6001 
410 1 106.42 9.71433 1.70322 15.8791 
10 1 106.42 9.84598 1.65438 19.4192 
416 1 106.42 11.6767 1.78649 17.8221 
33 1 106.42 11.4383 3.56106 19.5287 
433 1 106.42 11.7105 3.88844 15.7965 
14 1 106.42 13.5862 1.90199 19.5289 
414 1 106.42 13.6391 2.15686 15.8684 
37 1 106.42 15.7612 3.86052 19.5737 
18 1 106.42 17.6026 2.00787 19.4207 
418 1 106.42 17.7773 2.0635 15.924 
404 1 106.42 19.5886 1.76001 17.8826 
420 1 106.42 15.6671 2.12827 17.6355 
439 1 106.42 17.9555 3.86984 17.5611 
417 1 106.42 15.7638 -0.0228996 15.8642 
437 1 106.42 15.7892 3.81822 15.676 
21 1 106.42 0.105106 4.01217 19.3655 
441 1 106.42 0.137411 7.74366 15.5849 
22 1 106.42 2.03898 5.77948 19.5289 
424 1 106.42 0.0971161 5.8433 17.6033 
45 1 106.42 3.8552 7.81268 19.5585 
427 1 106.42 5.85724 4.01752 17.8487 
428 1 106.42 3.96547 5.78148 17.414 
26 1 106.42 5.97012 6.10263 19.3853 
431 1 106.42 9.79006 4.04507 17.63 
432 1 106.42 8.12728 6.23391 17.7442 
430 1 106.42 9.69425 5.83195 15.7708 
34 1 106.42 13.8216 6.02139 19.433 
435 1 106.42 13.7779 4.21719 17.8469 
436 1 106.42 11.7908 5.86505 17.6311 
38 1 106.42 17.6991 5.957 19.4969 
438 1 106.42 17.8092 5.96304 15.7963 
457 1 106.42 16.0152 7.76294 15.9536 
440 1 106.42 15.8547 5.89769 17.6511 
443 1 106.42 1.90568 7.86514 17.8261 
444 1 106.42 -0.00918673 9.7964 17.5078 
448 1 106.42 3.80399 9.92625 17.6839 
463 1 106.42 1.70321 11.5169 17.5023 
446 1 106.42 5.84504 9.97514 15.9399 
447 1 106.42 5.55919 7.92476 17.7118 
449 1 106.42 7.57263 8.06968 15.9295 
46 1 106.42 5.78848 9.8471 19.4578 
452 1 106.42 7.67759 9.93495 17.8654 
53 1 106.42 11.7036 7.81852 19.5946 
451 1 106.42 9.83779 8.20738 17.8222 
453 1 106.42 11.6616 7.8177 15.7999 
450 1 106.42 9.58174 9.9323 15.7113 
456 1 106.42 11.949 9.77945 17.6757 
54 1 106.42 13.8066 9.8186 19.4348 
455 1 106.42 13.8635 7.91818 17.5803 
475 1 106.42 13.8744 11.7361 17.8226 
58 1 106.42 18.0772 9.51965 19.5503 
459 1 106.42 17.8668 7.85623 17.5188 
460 1 106.42 15.8182 9.7905 17.7438 
479 1 106.42 17.7508 11.5614 17.7527 
462 1 106.42 1.87115 14.0035 15.8406 
483 1 106.42 1.95085 15.4517 17.968 
81 1 106.42 0.0196883 15.6182 19.5765 
468 1 106.42 3.72317 13.6412 17.7112 
65 1 106.42 4.0124 11.7399 19.3283 
489 1 106.42 7.88263 15.7021 15.838 
465 1 106.42 3.90021 11.9781 15.7376 
467 1 106.42 5.75923 11.9538 17.6863 
472 1 106.42 7.85315 13.8948 17.7023 
469 1 106.42 7.81031 11.6218 15.7241 
471 1 106.42 9.58664 11.8051 17.719 
491 1 106.42 9.8513 15.6086 17.6706 
476 1 106.42 11.7868 13.5718 17.4371 
474 1 106.42 13.7076 13.4996 15.9006 
77 1 106.42 15.7944 12.0786 19.298 
480 1 106.42 15.416 13.7591 17.6049 
495 1 106.42 13.8092 15.6508 17.9511 
464 1 106.42 19.338 13.7101 17.615 
478 1 106.42 17.2802 13.8778 15.894 
482 1 106.42 1.8588 17.5663 15.71 
488 1 106.42 3.7872 17.7329 17.3678 
486 1 106.42 6.05997 17.7689 15.9298 
487 1 106.42 5.63326 15.7524 17.6842 
407 1 106.42 5.63913 19.4904 17.7114 
93 1 106.42 11.6116 15.6863 19.5762 
492 1 106.42 8.05212 17.4623 18.0848 
413 1 106.42 11.5982 19.3209 15.9437 
411 1 106.42 9.64531 19.425 17.7467 
493 1 106.42 11.6247 15.9056 15.8188 
415 1 106.42 13.8918 19.6446 17.9464 
497 1 106.42 15.5348 15.86 15.8567 
496 1 106.42 12.0138 17.7064 17.7802 
494 1 106.42 13.6794 17.6213 16.0352 
401 1 106.42 19.6061 19.6438 15.892 
419 1 106.42 17.7752 19.5831 17.6567 
484 1 106.42 19.5814 17.5876 17.8337 
498 1 106.42 17.5724 17.753 15.8277 
499 1 106.42 17.5884 15.6547 17.7229 
500 1 106.42 15.7781 17.7454 17.8488 
