ITEM: TIMESTEP
31800
ITEM: NUMBER OF ATOMS
501
ITEM: BOX BOUNDS pp pp pp
0.0000000000000000e+00 1.9629018200000001e+01
0.0000000000000000e+00 1.9629018200000001e+01
0.0000000000000000e+00 1.9629018200000001e+01
ITEM: ATOMS id type mass x y z 
102 1 106.42 1.90985 1.67594 4.25688 
23 1 106.42 2.02019 3.74434 1.90759 
125 1 106.42 3.76261 3.88309 4.19966 
8 1 106.42 4.21127 2.12051 1.84805 
12 1 106.42 8.19743 2.04246 2.00615 
27 1 106.42 6.08122 3.94725 2.14876 
11 1 106.42 9.82872 19.7917 1.76349 
16 1 106.42 11.6314 2.20298 1.76269 
20 1 106.42 16.0409 1.85501 1.77907 
114 1 106.42 14.0628 1.76939 3.623 
15 1 106.42 13.7609 0.0197176 1.85195 
137 1 106.42 15.8428 3.98519 3.77992 
4 1 106.42 0.170474 1.76676 2.22262 
19 1 106.42 17.9692 -0.257729 2.28187 
39 1 106.42 17.9686 3.95783 1.80411 
101 1 106.42 19.4856 -0.109716 4.35771 
118 1 106.42 17.8732 1.85222 3.92889 
25 1 106.42 3.93698 3.83398 19.517 
43 1 106.42 1.85553 8.09382 1.57473 
41 1 106.42 -0.0530925 7.93513 19.5316 
28 1 106.42 3.68615 5.98046 1.95808 
129 1 106.42 7.94032 3.84838 4.06007 
31 1 106.42 9.88311 4.16451 1.97085 
32 1 106.42 7.79385 6.12042 2.04471 
133 1 106.42 11.5837 3.74161 3.92324 
153 1 106.42 11.67 8.26093 3.96897 
33 1 106.42 11.6385 3.95207 19.621 
36 1 106.42 11.4972 6.32419 2.14158 
35 1 106.42 13.6856 3.96506 2.08764 
134 1 106.42 13.4049 5.98082 3.98323 
40 1 106.42 15.5783 6.04266 1.83522 
141 1 106.42 19.4707 7.7543 3.77356 
24 1 106.42 0.351343 5.80827 1.69807 
121 1 106.42 19.855 3.73073 3.76044 
37 1 106.42 15.4598 3.86306 -0.219582 
38 1 106.42 17.8427 5.78272 -0.324301 
63 1 106.42 1.7809 11.939 1.88061 
142 1 106.42 1.88098 9.53253 3.94041 
149 1 106.42 7.86834 7.8391 3.83437 
48 1 106.42 3.58518 9.87695 1.8865 
47 1 106.42 5.54106 7.62294 1.93935 
146 1 106.42 6.11907 9.87772 3.95182 
45 1 106.42 3.96325 8.16169 -0.0509087 
46 1 106.42 5.808 9.87576 0.265972 
51 1 106.42 9.56213 8.02184 1.79592 
49 1 106.42 7.58458 7.90253 19.4575 
52 1 106.42 7.67256 9.76022 1.88217 
50 1 106.42 9.64022 9.94903 -0.0470394 
56 1 106.42 11.6813 9.85629 1.78713 
55 1 106.42 13.5754 7.89979 1.88569 
75 1 106.42 13.542 11.8721 2.28877 
154 1 106.42 13.5357 9.80217 3.87327 
54 1 106.42 13.6138 10.0084 19.5511 
59 1 106.42 17.8223 7.74339 1.55864 
44 1 106.42 19.5244 9.8644 2.01449 
60 1 106.42 15.6184 9.84296 1.96545 
157 1 106.42 15.7043 8.08214 3.83688 
64 1 106.42 -0.3195 13.8123 2.01259 
68 1 106.42 3.89374 13.8337 2.02291 
85 1 106.42 3.78856 15.6864 0.130756 
83 1 106.42 2.09293 15.875 2.09078 
67 1 106.42 5.62899 11.8759 2.01088 
66 1 106.42 5.86222 13.5466 0.149439 
166 1 106.42 6.05016 13.9085 3.93875 
87 1 106.42 5.98385 15.7047 1.85115 
69 1 106.42 7.97536 11.8048 -0.0217849 
71 1 106.42 9.72716 11.8217 1.91824 
72 1 106.42 7.93705 13.9807 1.84249 
89 1 106.42 7.8777 15.7245 -0.0931548 
169 1 106.42 7.72131 12.0148 3.68796 
76 1 106.42 11.8158 13.695 1.93564 
95 1 106.42 13.8546 15.8671 2.23402 
74 1 106.42 13.8961 13.805 -0.135956 
79 1 106.42 17.7244 11.756 2.44131 
80 1 106.42 15.6456 13.8984 1.96521 
78 1 106.42 17.7037 13.8108 0.0569374 
81 1 106.42 0.0773646 15.9414 0.0148542 
3 1 106.42 1.96786 19.771 2.16223 
84 1 106.42 -0.253901 17.5188 2.14977 
88 1 106.42 3.99559 17.66 1.8977 
82 1 106.42 1.88098 17.957 0.301483 
5 1 106.42 4.01085 19.8322 0.0449176 
7 1 106.42 6.39792 20.0514 1.87641 
9 1 106.42 8.01884 19.7221 19.3909 
91 1 106.42 9.86877 15.8973 2.18392 
92 1 106.42 7.85281 17.7082 1.87269 
90 1 106.42 9.82715 17.6881 0.0014704 
13 1 106.42 11.7561 19.6414 -0.002064 
189 1 106.42 7.8961 15.6853 4.01647 
113 1 106.42 11.7391 0.244176 3.89363 
96 1 106.42 11.7177 17.8842 2.09108 
94 1 106.42 13.5039 17.4594 0.128002 
100 1 106.42 15.7669 17.7629 2.1034 
197 1 106.42 15.6271 15.7272 4.30523 
17 1 106.42 15.7342 19.6553 19.4475 
99 1 106.42 17.4153 15.5744 2.03946 
97 1 106.42 15.6875 15.9018 0.0808885 
198 1 106.42 17.6021 17.5021 4.45629 
98 1 106.42 17.389 17.7481 19.5832 
202 1 106.42 1.77089 2.04041 7.97145 
103 1 106.42 2.20423 0.0423772 6.03523 
106 1 106.42 5.69621 1.86868 3.78023 
108 1 106.42 3.99255 2.0048 5.93864 
105 1 106.42 3.91521 -0.157257 3.6953 
107 1 106.42 5.62901 19.5661 5.64017 
109 1 106.42 7.73362 0.157451 3.92847 
110 1 106.42 9.73083 1.86864 3.87935 
112 1 106.42 7.82276 2.07452 6.02552 
111 1 106.42 9.77406 0.222665 5.88008 
131 1 106.42 9.6822 4.11681 5.87423 
116 1 106.42 11.7514 2.15962 5.79868 
120 1 106.42 15.531 2.3678 5.74246 
115 1 106.42 13.8828 0.0905708 5.89062 
213 1 106.42 11.9103 0.0109486 7.86758 
104 1 106.42 19.5727 1.9442 5.93619 
139 1 106.42 17.8332 4.17646 5.62414 
119 1 106.42 17.5128 0.0402508 6.26698 
122 1 106.42 1.89463 5.83903 3.74688 
123 1 106.42 1.70976 3.88444 5.67611 
143 1 106.42 1.87856 7.71367 5.74695 
245 1 106.42 3.89178 7.95242 7.70206 
128 1 106.42 3.82678 5.68697 5.80992 
145 1 106.42 3.92482 7.75645 3.89109 
126 1 106.42 5.96079 5.54536 4.01985 
127 1 106.42 5.74213 3.88737 6.06655 
132 1 106.42 7.91163 6.243 5.77584 
225 1 106.42 4.10108 3.86368 8.04672 
130 1 106.42 9.69093 5.84192 3.84659 
136 1 106.42 11.4044 6.1933 5.74866 
135 1 106.42 13.6532 3.85259 5.91753 
140 1 106.42 15.6573 5.69477 5.69898 
233 1 106.42 11.6453 3.97402 7.8641 
237 1 106.42 15.5689 3.7807 7.92371 
234 1 106.42 13.3957 5.95028 7.68564 
124 1 106.42 19.5738 6.0403 5.86757 
138 1 106.42 17.4576 6.32058 3.79562 
159 1 106.42 17.4424 7.93723 6.01543 
238 1 106.42 17.4242 5.7954 7.65001 
148 1 106.42 4.01447 9.6305 5.5466 
265 1 106.42 4.28292 11.7866 7.88302 
163 1 106.42 2.46246 11.6922 5.69736 
242 1 106.42 1.9578 9.8146 7.60881 
147 1 106.42 5.7684 7.63728 5.76922 
246 1 106.42 6.01522 10.0265 7.74163 
152 1 106.42 7.88126 9.89985 5.8197 
269 1 106.42 7.87644 12.0281 8.13066 
173 1 106.42 11.7951 11.7558 3.89004 
151 1 106.42 9.5305 8.0773 5.96575 
150 1 106.42 9.48482 10.1811 3.72689 
156 1 106.42 11.6834 9.71959 5.98867 
171 1 106.42 9.93138 11.7066 5.61601 
177 1 106.42 15.6298 11.7951 4.03883 
155 1 106.42 13.6093 7.75981 5.76448 
257 1 106.42 15.3977 7.95864 7.80071 
160 1 106.42 15.8156 10.0549 5.77741 
277 1 106.42 16.0476 11.6865 8.01353 
161 1 106.42 0.224103 11.649 4.14367 
158 1 106.42 17.5496 9.6285 3.90164 
144 1 106.42 19.4259 9.73822 5.75459 
258 1 106.42 17.5241 9.44536 8.2753 
165 1 106.42 4.03927 11.9769 3.7898 
162 1 106.42 2.02301 13.6537 3.99035 
262 1 106.42 1.70682 13.5208 8.01318 
181 1 106.42 19.6401 15.6102 3.84673 
281 1 106.42 19.5802 15.5247 7.87802 
285 1 106.42 4.22154 15.5006 7.80966 
167 1 106.42 5.7775 11.8997 5.81381 
168 1 106.42 3.83254 13.8242 6.05492 
187 1 106.42 5.78762 15.7305 6.00028 
266 1 106.42 6.04745 13.7106 7.65718 
289 1 106.42 8.30999 15.5847 7.98701 
172 1 106.42 7.86857 13.5172 6.07039 
170 1 106.42 9.67426 13.7325 3.79468 
176 1 106.42 11.7274 13.6862 5.84654 
273 1 106.42 11.6423 11.7334 8.04248 
175 1 106.42 13.586 11.7286 6.09156 
174 1 106.42 13.7486 13.8395 4.31471 
195 1 106.42 14.1391 16.0704 6.2942 
178 1 106.42 17.4937 13.7314 4.06748 
179 1 106.42 17.6939 11.6289 5.84307 
164 1 106.42 -0.0642934 13.3682 5.92366 
180 1 106.42 15.5923 13.4895 6.18744 
182 1 106.42 1.82629 17.5448 4.21545 
183 1 106.42 1.81794 15.6381 5.91624 
282 1 106.42 2.35007 17.4505 7.83743 
185 1 106.42 3.97418 15.4645 3.93691 
188 1 106.42 3.85667 17.468 5.89485 
186 1 106.42 5.68326 17.5316 3.70283 
286 1 106.42 6.11003 17.497 7.81062 
190 1 106.42 9.92027 17.6757 4.21904 
192 1 106.42 7.87837 17.6646 5.64293 
191 1 106.42 10.0576 15.7178 5.86362 
293 1 106.42 11.8996 15.8927 7.86291 
193 1 106.42 11.9323 15.5923 3.85845 
194 1 106.42 13.5878 17.913 3.85327 
196 1 106.42 11.9579 17.6121 5.85328 
294 1 106.42 13.708 17.9181 7.9624 
200 1 106.42 15.6788 17.7626 5.89601 
117 1 106.42 15.9741 19.7003 4.01276 
184 1 106.42 19.8252 17.6147 6.17923 
199 1 106.42 17.8118 15.4035 6.18609 
201 1 106.42 0.194689 -0.204846 8.0731 
302 1 106.42 1.76246 1.74912 11.8051 
204 1 106.42 0.0733521 2.24027 9.82018 
206 1 106.42 5.87712 1.83634 7.89504 
208 1 106.42 4.07734 1.85358 10.0051 
207 1 106.42 5.66743 19.2558 9.77921 
229 1 106.42 8.09274 4.08459 7.98161 
227 1 106.42 5.94126 3.97722 9.78443 
209 1 106.42 7.88539 19.6199 7.7315 
210 1 106.42 9.86521 2.13909 7.70199 
212 1 106.42 7.74718 2.2569 9.60376 
329 1 106.42 7.97613 4.05785 11.8566 
310 1 106.42 9.52825 2.09683 11.7209 
214 1 106.42 13.6801 1.9571 7.82642 
216 1 106.42 11.877 1.98508 9.67418 
215 1 106.42 13.5867 19.5754 10.0462 
313 1 106.42 11.666 0.108201 11.9169 
337 1 106.42 15.79 4.17459 11.6878 
218 1 106.42 17.5781 2.34 8.04062 
217 1 106.42 15.585 19.8505 8.01593 
220 1 106.42 15.7593 1.85787 9.84216 
239 1 106.42 17.737 4.20077 9.97139 
318 1 106.42 17.6734 2.15113 11.5955 
221 1 106.42 19.5328 3.88555 7.75928 
223 1 106.42 2.24745 4.00112 9.84929 
222 1 106.42 1.78736 5.57482 7.79897 
322 1 106.42 2.15753 5.98356 11.9154 
228 1 106.42 4.24919 5.86933 9.89757 
341 1 106.42 0.0869363 7.86532 12.1324 
325 1 106.42 4.02187 3.81921 11.8495 
226 1 106.42 5.85468 6.039 7.72537 
326 1 106.42 5.90331 5.99633 11.8589 
230 1 106.42 10.1034 5.86793 7.95805 
231 1 106.42 9.92056 3.83082 9.82913 
232 1 106.42 7.86668 5.93434 9.76363 
236 1 106.42 11.9633 6.20077 10.1387 
235 1 106.42 13.751 3.95977 9.69762 
255 1 106.42 13.6439 8.0767 9.81128 
240 1 106.42 15.5418 6.02033 9.67094 
357 1 106.42 15.5919 7.83435 11.9416 
241 1 106.42 19.5562 7.83993 7.58433 
224 1 106.42 19.6606 5.93392 9.56737 
259 1 106.42 17.7443 7.77446 10.1223 
338 1 106.42 17.889 6.03814 11.9715 
243 1 106.42 1.86367 7.60767 9.6436 
248 1 106.42 3.87863 9.73488 9.63447 
261 1 106.42 19.5778 11.5996 7.62559 
244 1 106.42 0.102641 9.44951 9.76114 
263 1 106.42 1.96231 11.597 9.67346 
365 1 106.42 3.81949 11.8848 11.8538 
249 1 106.42 7.73427 7.93166 7.84956 
247 1 106.42 6.05627 7.9753 9.88147 
345 1 106.42 3.7732 7.88945 11.6843 
252 1 106.42 7.61693 9.88054 10.0024 
253 1 106.42 11.4378 7.8087 7.72122 
251 1 106.42 9.71713 8.01076 9.76149 
250 1 106.42 9.47148 9.82501 7.72112 
256 1 106.42 11.6148 9.79401 9.84472 
271 1 106.42 9.79401 11.9589 10.0451 
254 1 106.42 13.7121 9.81261 7.80614 
260 1 106.42 15.716 9.68657 9.97556 
377 1 106.42 15.6305 11.6679 11.9259 
358 1 106.42 17.8133 9.88597 11.8733 
279 1 106.42 17.7265 11.6343 9.81337 
268 1 106.42 4.0597 13.8219 9.72599 
283 1 106.42 2.26818 15.6767 9.55834 
264 1 106.42 -0.280369 13.5382 9.66766 
267 1 106.42 5.67216 11.6336 9.94947 
366 1 106.42 5.78407 13.901 11.7228 
270 1 106.42 10.009 13.6574 7.83235 
369 1 106.42 7.6603 12.0801 11.872 
272 1 106.42 7.89703 13.8133 9.86901 
370 1 106.42 9.75823 13.8338 11.8519 
275 1 106.42 13.8446 11.9459 9.69446 
276 1 106.42 11.8488 13.8115 9.93318 
274 1 106.42 13.4642 13.7503 7.82476 
295 1 106.42 13.5511 15.8596 10.0003 
374 1 106.42 13.6681 13.764 11.9676 
278 1 106.42 17.6151 13.6704 7.98703 
280 1 106.42 15.7205 13.6364 9.92738 
299 1 106.42 17.6458 15.6921 10.0796 
203 1 106.42 2.08675 19.5644 9.89087 
284 1 106.42 -0.0491973 17.5753 9.73911 
205 1 106.42 3.93236 19.6116 7.72082 
385 1 106.42 3.83511 15.5701 11.7443 
288 1 106.42 3.98193 17.6097 9.81399 
305 1 106.42 3.93818 19.4987 11.9478 
287 1 106.42 5.92874 15.6519 9.80303 
386 1 106.42 5.86546 17.4535 11.9958 
290 1 106.42 9.83842 17.8291 7.64201 
211 1 106.42 9.83801 0.207401 10.0094 
389 1 106.42 7.90523 15.5746 12.3144 
291 1 106.42 10.0961 15.8552 10.0274 
292 1 106.42 8.08911 17.4389 9.97117 
390 1 106.42 9.76663 17.5876 12.1005 
297 1 106.42 15.8572 15.4119 7.98396 
296 1 106.42 11.5166 17.9326 9.80964 
300 1 106.42 15.9039 17.6882 9.78319 
219 1 106.42 17.9187 19.9021 9.96618 
298 1 106.42 17.6193 17.6101 7.99605 
301 1 106.42 -0.137095 19.152 11.7729 
398 1 106.42 17.7091 17.3136 11.8757 
308 1 106.42 4.16328 1.96226 13.6822 
421 1 106.42 0.00137781 3.8434 15.6746 
402 1 106.42 2.12707 1.69151 15.5475 
323 1 106.42 2.03365 3.77146 13.5361 
306 1 106.42 5.99133 2.03355 11.6366 
406 1 106.42 5.72354 1.75986 15.3944 
327 1 106.42 5.95539 4.10076 13.695 
307 1 106.42 5.92134 19.4322 13.7271 
309 1 106.42 7.87045 -0.404563 11.599 
312 1 106.42 7.67339 2.12289 13.4586 
316 1 106.42 11.7802 2.0714 13.459 
331 1 106.42 9.73431 4.06027 13.5742 
314 1 106.42 13.8598 2.05962 11.6087 
335 1 106.42 13.7413 3.93568 13.6846 
315 1 106.42 13.6776 -0.145196 13.5307 
321 1 106.42 0.280383 4.17623 11.4279 
304 1 106.42 19.7122 1.80576 13.7318 
320 1 106.42 15.651 1.98715 13.6244 
319 1 106.42 17.5351 19.3072 13.8229 
437 1 106.42 15.519 3.84768 15.8496 
343 1 106.42 1.98188 7.89935 13.9136 
324 1 106.42 0.0692741 5.84143 13.9349 
441 1 106.42 19.5388 7.58049 15.6214 
425 1 106.42 3.90482 3.53955 15.6296 
328 1 106.42 4.13077 6.07421 13.6863 
332 1 106.42 7.78324 6.0788 13.7666 
426 1 106.42 5.82601 5.70003 15.6367 
330 1 106.42 9.64237 6.06202 11.5939 
351 1 106.42 9.89786 8.09088 13.4556 
433 1 106.42 11.7416 3.7723 15.6132 
430 1 106.42 9.74155 5.9702 15.6095 
334 1 106.42 13.9042 5.7112 11.736 
333 1 106.42 11.7921 3.75838 11.7268 
336 1 106.42 11.6609 5.85079 13.7089 
434 1 106.42 13.664 5.77457 15.6575 
355 1 106.42 13.8695 7.63036 13.7775 
340 1 106.42 15.6567 5.7392 13.8251 
339 1 106.42 18.0012 3.6498 13.7068 
359 1 106.42 17.6097 7.82335 13.7677 
438 1 106.42 17.6256 5.56617 15.5879 
342 1 106.42 2.14409 9.8797 11.6143 
442 1 106.42 2.04049 9.9694 15.8374 
445 1 106.42 4.05318 7.80736 15.8419 
346 1 106.42 5.62922 9.7639 11.7663 
349 1 106.42 7.65007 7.84626 11.7595 
347 1 106.42 6.04347 8.17046 13.6543 
348 1 106.42 3.81483 9.81416 14.0578 
352 1 106.42 7.78709 10.2159 13.9715 
449 1 106.42 7.86845 8.03769 15.3614 
469 1 106.42 7.97896 11.8645 15.8938 
350 1 106.42 9.69064 10.3283 11.773 
473 1 106.42 12.2709 11.7208 16.1116 
450 1 106.42 9.94895 9.75096 15.6005 
353 1 106.42 12.0885 7.96747 11.8808 
356 1 106.42 12.0129 10.0772 13.6408 
354 1 106.42 13.6171 10.0662 11.5103 
375 1 106.42 14.002 11.9986 13.7446 
360 1 106.42 15.7348 9.70212 13.8843 
344 1 106.42 -0.0260291 9.64162 13.8388 
458 1 106.42 17.6331 9.57387 15.6282 
361 1 106.42 19.7363 11.7673 11.7664 
379 1 106.42 17.7213 11.5878 13.8128 
362 1 106.42 1.93876 13.9724 11.6588 
363 1 106.42 1.85024 11.7798 13.6624 
364 1 106.42 -0.0691082 13.683 13.4556 
367 1 106.42 5.64033 11.9256 13.8689 
368 1 106.42 3.52881 13.6326 13.862 
387 1 106.42 5.81994 15.6587 13.7754 
372 1 106.42 8.14445 13.7417 13.9265 
373 1 106.42 11.7718 11.9462 11.5427 
371 1 106.42 10.0257 11.8429 14.111 
391 1 106.42 10.0428 15.6917 13.93 
393 1 106.42 11.8469 15.9838 11.8547 
376 1 106.42 11.8288 13.6319 13.6742 
395 1 106.42 13.8546 15.7313 13.6871 
474 1 106.42 13.7179 13.7193 15.7804 
380 1 106.42 15.7632 13.7131 13.4796 
378 1 106.42 17.7445 13.3475 11.649 
461 1 106.42 19.6454 11.6954 15.6831 
383 1 106.42 1.80331 15.7591 13.7331 
303 1 106.42 1.99765 19.5536 13.6425 
382 1 106.42 2.06902 17.2915 11.6637 
482 1 106.42 2.31507 17.6539 15.7274 
409 1 106.42 7.98649 19.8798 15.8592 
388 1 106.42 3.73531 17.5967 13.6906 
405 1 106.42 3.99182 19.6199 15.8702 
311 1 106.42 9.73573 19.8241 13.6517 
392 1 106.42 7.88544 17.3452 14.3062 
490 1 106.42 10.2586 17.5024 15.6632 
396 1 106.42 11.967 17.5747 13.793 
493 1 106.42 11.775 15.6058 15.889 
394 1 106.42 13.8027 17.6739 11.9753 
400 1 106.42 15.6946 17.2967 13.9032 
317 1 106.42 15.8402 19.6302 11.7029 
397 1 106.42 15.5293 15.5148 11.564 
384 1 106.42 19.7278 17.5453 13.8502 
381 1 106.42 19.5978 15.6274 11.5981 
399 1 106.42 17.649 15.4418 13.6111 
498 1 106.42 17.6449 17.4648 15.9174 
2 1 106.42 2.0315 1.93772 -0.0586059 
423 1 106.42 2.12823 4.0498 17.4149 
404 1 106.42 0.265455 1.67927 17.4234 
21 1 106.42 19.7681 3.69937 19.2288 
401 1 106.42 -0.0482703 19.6236 15.5115 
408 1 106.42 3.78834 1.90427 17.7167 
6 1 106.42 6.20691 2.0094 19.7112 
412 1 106.42 7.90995 2.34659 17.7544 
407 1 106.42 5.83185 -0.0149876 17.6725 
29 1 106.42 7.92287 4.24063 19.6728 
410 1 106.42 9.87389 1.81935 15.4564 
10 1 106.42 9.7291 2.31018 19.7634 
416 1 106.42 11.6045 2.12426 17.9632 
431 1 106.42 9.85486 3.97665 17.7228 
501 2 1.01 14.9004 4.67794 1.22632 
14 1 106.42 13.7367 1.64224 19.493 
414 1 106.42 13.8164 2.02089 15.4552 
420 1 106.42 15.6481 1.75263 17.4689 
415 1 106.42 13.5124 19.3398 17.691 
1 1 106.42 19.7109 -0.0474081 -0.0843696 
18 1 106.42 17.7885 1.69761 19.5536 
418 1 106.42 17.7124 1.76937 15.5877 
422 1 106.42 2.24963 5.61061 15.4113 
22 1 106.42 1.9372 5.88459 19.4975 
424 1 106.42 0.0306422 5.77848 17.6602 
428 1 106.42 4.09829 6.16034 17.8651 
443 1 106.42 1.89121 7.70824 17.4781 
429 1 106.42 8.10831 3.7273 15.5566 
427 1 106.42 5.76327 3.63243 17.62 
26 1 106.42 5.94077 5.96187 -0.0455719 
432 1 106.42 7.68505 5.68596 17.4522 
30 1 106.42 9.8594 6.01 19.5994 
436 1 106.42 11.6177 6.0726 17.315 
53 1 106.42 11.7425 8.00306 19.7196 
453 1 106.42 11.9307 7.96288 15.3489 
34 1 106.42 13.6544 5.89533 19.6485 
435 1 106.42 13.529 3.69464 17.5921 
455 1 106.42 13.6673 7.83496 17.6061 
439 1 106.42 17.7064 3.76422 17.5674 
457 1 106.42 15.7441 7.63624 15.6446 
440 1 106.42 15.546 5.89907 17.6069 
459 1 106.42 17.6297 7.50882 17.3778 
42 1 106.42 1.8641 9.88662 19.5363 
444 1 106.42 19.3563 9.89185 17.851 
448 1 106.42 3.84605 9.90606 17.6562 
463 1 106.42 1.75174 11.8528 17.8464 
65 1 106.42 3.7381 11.6806 -0.101896 
446 1 106.42 5.85689 10.0622 15.626 
447 1 106.42 5.94579 8.26345 17.4822 
452 1 106.42 7.87339 9.94631 17.4057 
451 1 106.42 9.57912 7.64804 17.5528 
471 1 106.42 9.85136 11.7848 17.7488 
73 1 106.42 11.7805 11.8374 19.6573 
454 1 106.42 13.8293 9.7029 15.6642 
456 1 106.42 11.7721 9.39561 17.5365 
475 1 106.42 14.0309 11.7383 17.9287 
57 1 106.42 15.4901 7.59775 19.4653 
61 1 106.42 19.4101 11.7949 19.6412 
58 1 106.42 17.3436 9.65256 -0.0278171 
460 1 106.42 15.7281 9.73458 17.4653 
479 1 106.42 17.6805 11.8244 17.6844 
62 1 106.42 1.92607 13.9666 19.8245 
462 1 106.42 1.75011 13.5408 15.6597 
483 1 106.42 1.74321 15.9519 17.7208 
468 1 106.42 3.9974 13.8073 17.8678 
465 1 106.42 3.92106 11.7901 15.8297 
466 1 106.42 5.67781 13.8066 15.7353 
467 1 106.42 5.78937 11.7606 17.7516 
487 1 106.42 6.07553 15.5059 17.6745 
70 1 106.42 9.91309 13.7893 19.5806 
470 1 106.42 10.0841 13.8112 16.1357 
472 1 106.42 7.73926 13.6269 17.8237 
93 1 106.42 11.7745 15.7624 0.05196 
476 1 106.42 11.9423 13.7651 18.0405 
480 1 106.42 15.9196 13.6151 17.6363 
495 1 106.42 13.9623 15.9983 17.5389 
477 1 106.42 15.7914 11.817 15.7003 
77 1 106.42 15.7651 11.8672 0.135554 
464 1 106.42 19.8282 13.8925 17.6949 
478 1 106.42 17.7694 13.5952 15.5357 
499 1 106.42 17.9483 15.584 17.6972 
485 1 106.42 3.93272 15.3588 15.8702 
481 1 106.42 0.00788484 15.5303 15.5863 
403 1 106.42 2.04876 19.5631 17.7214 
488 1 106.42 4.07422 17.4459 17.7828 
86 1 106.42 5.91258 17.9062 19.825 
486 1 106.42 5.56214 17.5195 15.6274 
489 1 106.42 7.91477 15.3183 15.7813 
491 1 106.42 9.62441 15.8427 17.6741 
492 1 106.42 7.78387 17.6632 17.3696 
413 1 106.42 11.6605 0.200049 15.7287 
411 1 106.42 9.97133 19.9637 17.7891 
497 1 106.42 16.0776 15.4849 15.7799 
496 1 106.42 11.6617 17.6831 17.6639 
494 1 106.42 13.5691 17.7228 15.5083 
417 1 106.42 15.5827 19.6101 15.7974 
419 1 106.42 17.7253 19.5093 17.5726 
484 1 106.42 19.7771 17.9543 17.3489 
500 1 106.42 15.6079 17.5656 17.5791 
