ITEM: TIMESTEP
32700
ITEM: NUMBER OF ATOMS
501
ITEM: BOX BOUNDS pp pp pp
0.0000000000000000e+00 1.9629018200000001e+01
0.0000000000000000e+00 1.9629018200000001e+01
0.0000000000000000e+00 1.9629018200000001e+01
ITEM: ATOMS id type mass x y z 
102 1 106.42 1.83342 1.73437 4.1258 
23 1 106.42 1.9009 3.68401 2.0484 
125 1 106.42 3.96732 3.84594 3.8419 
8 1 106.42 3.92718 2.09683 1.99764 
12 1 106.42 7.92018 2.22663 1.79611 
27 1 106.42 5.82622 3.93587 2.03101 
11 1 106.42 9.69197 19.7791 1.84284 
16 1 106.42 11.9702 1.98184 2.24067 
20 1 106.42 15.825 1.89982 1.52783 
114 1 106.42 13.8734 1.87479 3.73622 
15 1 106.42 13.8724 -0.167783 1.89868 
137 1 106.42 15.8132 3.82265 3.64707 
4 1 106.42 -0.0870395 1.74452 2.06 
19 1 106.42 17.6442 -0.0133214 2.12032 
39 1 106.42 17.8375 4.01077 1.76328 
101 1 106.42 19.6862 -0.416485 4.07123 
118 1 106.42 17.6896 2.00022 4.04149 
25 1 106.42 3.95792 3.95223 19.806 
43 1 106.42 1.60671 7.93009 1.73663 
41 1 106.42 -0.117888 7.72611 19.1766 
28 1 106.42 3.73978 5.96056 1.68648 
129 1 106.42 7.76044 3.65178 3.88018 
31 1 106.42 9.78089 4.13178 1.9767 
32 1 106.42 7.71137 5.91407 1.79143 
133 1 106.42 11.5193 3.93684 4.09376 
153 1 106.42 11.5285 7.89548 3.63468 
33 1 106.42 11.8701 4.07073 19.7605 
36 1 106.42 11.7009 6.00922 1.83427 
35 1 106.42 13.7403 3.94755 1.8603 
134 1 106.42 13.4448 5.6874 3.89815 
40 1 106.42 15.7399 5.91334 1.95987 
141 1 106.42 19.9585 7.96152 3.78501 
24 1 106.42 -0.0736851 5.84462 1.74867 
121 1 106.42 19.7733 3.75117 3.97812 
37 1 106.42 15.8516 3.81447 -0.117442 
38 1 106.42 17.6059 5.72159 -0.317284 
63 1 106.42 1.8095 11.8396 1.96659 
142 1 106.42 1.96125 9.93735 4.01341 
149 1 106.42 7.74638 7.97426 3.92476 
48 1 106.42 3.73154 9.78644 2.11497 
47 1 106.42 5.84611 8.01074 2.09299 
146 1 106.42 6.08794 9.9063 3.85124 
45 1 106.42 3.71818 7.82271 -0.092593 
46 1 106.42 5.686 9.77112 -0.0265005 
51 1 106.42 9.6467 8.0168 1.86838 
49 1 106.42 7.6497 7.86373 19.5733 
52 1 106.42 7.77862 9.86094 1.76615 
50 1 106.42 9.84278 9.63016 -0.222901 
56 1 106.42 11.5591 10.0892 1.93813 
55 1 106.42 13.6464 8.1446 1.986 
75 1 106.42 13.8257 11.9041 2.08002 
154 1 106.42 13.7341 9.75267 4.25569 
54 1 106.42 13.5916 9.86377 19.7377 
59 1 106.42 17.7816 7.82114 1.852 
44 1 106.42 19.5971 9.94949 1.84201 
60 1 106.42 15.549 9.7824 1.66194 
157 1 106.42 15.5369 7.74007 4.00715 
64 1 106.42 -0.111392 13.8996 2.08749 
68 1 106.42 4.04936 13.8867 1.97434 
85 1 106.42 4.10455 15.6879 -0.165224 
83 1 106.42 1.79855 15.945 1.87752 
67 1 106.42 5.5979 11.5201 1.92093 
66 1 106.42 5.93943 13.5595 -0.0644549 
166 1 106.42 5.82015 13.889 3.90362 
87 1 106.42 5.87493 15.7053 1.77569 
69 1 106.42 7.68317 11.497 -0.159356 
71 1 106.42 9.49731 11.9033 1.73039 
72 1 106.42 7.63675 13.6266 1.85384 
89 1 106.42 7.7408 15.6282 -0.0479642 
169 1 106.42 7.59597 11.924 3.8655 
76 1 106.42 11.7858 13.9978 1.88178 
95 1 106.42 13.6889 15.7851 2.19437 
74 1 106.42 13.9047 14.0228 0.137541 
79 1 106.42 17.6193 11.8238 1.95487 
80 1 106.42 15.6104 13.8243 1.90376 
78 1 106.42 17.606 13.8463 -0.0121518 
81 1 106.42 -0.11217 16.0767 -0.218464 
3 1 106.42 2.00232 19.7015 1.96589 
84 1 106.42 -0.185459 17.3844 1.99796 
88 1 106.42 3.92506 17.8 1.83583 
82 1 106.42 2.08239 17.7903 0.124242 
5 1 106.42 3.95582 19.8187 0.116823 
7 1 106.42 5.93378 19.8865 2.10467 
9 1 106.42 7.9955 19.5854 19.3976 
91 1 106.42 9.64444 15.9208 1.94364 
92 1 106.42 8.10988 17.8852 2.13534 
90 1 106.42 10.0122 17.6814 -0.0232697 
13 1 106.42 11.6168 19.7454 0.0995777 
189 1 106.42 8.00593 15.6135 4.06852 
113 1 106.42 11.7573 0.21322 3.96174 
96 1 106.42 11.7129 17.7434 1.9676 
94 1 106.42 13.8612 17.7215 0.0672904 
100 1 106.42 15.7021 17.6928 2.1663 
197 1 106.42 15.797 15.7836 3.94625 
17 1 106.42 15.7042 19.5478 19.5903 
99 1 106.42 17.5858 15.7575 2.19348 
97 1 106.42 15.8214 15.8568 -0.226761 
198 1 106.42 17.8282 17.5062 4.20068 
98 1 106.42 17.7174 17.8044 19.7896 
202 1 106.42 2.03029 1.85463 7.88023 
103 1 106.42 1.85861 -0.355407 6.02698 
106 1 106.42 5.50632 1.98033 4.35432 
108 1 106.42 3.59334 1.88261 6.10586 
105 1 106.42 3.8075 -0.0532343 4.00728 
107 1 106.42 5.88534 19.5287 5.79909 
109 1 106.42 7.94561 -0.193315 4.07523 
110 1 106.42 9.71386 1.8912 4.06559 
112 1 106.42 7.54816 1.91723 5.85101 
111 1 106.42 9.85412 -0.0729811 5.869 
131 1 106.42 9.81938 3.75544 5.94679 
116 1 106.42 11.7238 1.84586 6.1013 
120 1 106.42 15.7887 2.11706 5.94664 
115 1 106.42 13.5431 0.113335 5.85474 
213 1 106.42 11.614 -0.0396286 7.7916 
104 1 106.42 19.4632 1.72119 6.16238 
139 1 106.42 17.8709 3.98351 5.59462 
119 1 106.42 17.7677 -0.0931147 6.0415 
122 1 106.42 1.95066 5.76142 3.86314 
123 1 106.42 2.15034 4.05078 5.92136 
143 1 106.42 2.26316 7.83298 5.9158 
245 1 106.42 3.93657 7.85489 7.80351 
128 1 106.42 3.99795 5.79399 6.12345 
145 1 106.42 3.73319 7.51516 3.71855 
126 1 106.42 5.86591 5.70365 4.04126 
127 1 106.42 6.03533 3.84822 6.15948 
132 1 106.42 7.82686 5.9651 5.91811 
225 1 106.42 3.97343 3.72242 7.88074 
130 1 106.42 9.72756 6.14411 3.84557 
136 1 106.42 11.5527 5.90382 5.81339 
135 1 106.42 13.4917 4.0029 5.89544 
140 1 106.42 15.5089 5.73396 5.68188 
233 1 106.42 11.752 3.84126 7.83307 
237 1 106.42 15.9317 4.29322 7.92503 
234 1 106.42 13.6043 5.71778 8.00291 
124 1 106.42 19.6467 6.00891 5.51288 
138 1 106.42 17.8265 5.88265 3.87936 
159 1 106.42 17.4933 7.86401 5.90096 
238 1 106.42 17.7199 6.0685 7.84041 
148 1 106.42 4.15752 9.59877 5.71413 
265 1 106.42 4.01218 11.6599 7.96427 
163 1 106.42 2.17681 11.8242 5.91721 
242 1 106.42 2.19335 10.0396 7.69438 
147 1 106.42 5.87718 7.91123 5.64849 
246 1 106.42 6.15369 9.81946 7.7647 
152 1 106.42 7.97585 10.1494 5.91965 
269 1 106.42 7.96454 11.8544 8.04617 
173 1 106.42 11.5084 11.9517 3.73689 
151 1 106.42 10.0458 8.00053 5.81785 
150 1 106.42 9.72643 9.70481 3.85739 
156 1 106.42 11.692 10.1346 5.91452 
171 1 106.42 9.86009 11.8942 5.92204 
177 1 106.42 15.5293 11.6671 3.80487 
155 1 106.42 13.6267 7.72211 5.8486 
257 1 106.42 15.5561 7.61439 7.62209 
160 1 106.42 15.7144 9.76173 6.031 
277 1 106.42 15.9175 11.5309 7.78014 
161 1 106.42 0.013934 11.6002 3.92563 
158 1 106.42 17.5556 9.70716 3.60899 
144 1 106.42 19.634 9.52769 5.90155 
258 1 106.42 17.5652 9.38958 8.08791 
165 1 106.42 3.70301 11.6082 3.8528 
162 1 106.42 1.81602 13.7474 3.78108 
262 1 106.42 2.08122 13.459 7.69004 
181 1 106.42 19.7393 15.61 4.09232 
281 1 106.42 19.7597 15.6332 8.03942 
285 1 106.42 3.89684 15.8607 7.79207 
167 1 106.42 5.72369 11.8296 5.7863 
168 1 106.42 4.03855 13.7661 6.00063 
187 1 106.42 6.28056 15.6165 5.85454 
266 1 106.42 6.14872 14.0167 8.13133 
289 1 106.42 8.13265 15.8055 8.04086 
172 1 106.42 7.88827 13.5591 5.85157 
170 1 106.42 9.69351 13.7148 3.87153 
176 1 106.42 11.9056 13.8834 5.76071 
273 1 106.42 11.6637 11.8375 8.02483 
175 1 106.42 13.6515 11.8263 6.10236 
174 1 106.42 13.8371 13.849 4.06339 
195 1 106.42 13.7031 15.6997 5.94198 
178 1 106.42 17.53 13.6574 4.12294 
179 1 106.42 17.7345 11.6601 5.78572 
164 1 106.42 0.0103527 13.6872 5.7045 
180 1 106.42 15.6506 13.5418 6.04707 
182 1 106.42 2.03597 17.6576 3.8284 
183 1 106.42 1.94275 15.2851 5.96773 
282 1 106.42 1.83724 17.8247 8.04737 
185 1 106.42 3.92849 15.7459 4.11323 
188 1 106.42 4.0408 17.5114 5.94956 
186 1 106.42 5.9089 17.6407 3.56879 
286 1 106.42 5.96265 17.5694 8.05507 
190 1 106.42 10.0229 17.8149 3.98575 
192 1 106.42 7.49868 17.6618 5.92251 
191 1 106.42 9.93232 15.8981 5.99933 
293 1 106.42 11.6931 15.9569 7.95999 
193 1 106.42 11.5039 15.6532 3.85782 
194 1 106.42 13.7411 17.9876 4.00167 
196 1 106.42 11.9647 17.6689 5.8433 
294 1 106.42 13.9253 17.9648 7.98776 
200 1 106.42 15.7127 17.9388 6.07126 
117 1 106.42 15.7872 19.7548 4.03276 
184 1 106.42 19.6831 17.292 6.00527 
199 1 106.42 17.7131 15.5601 5.87208 
201 1 106.42 -0.164804 0.0262025 7.9848 
302 1 106.42 2.12566 1.77894 11.6237 
204 1 106.42 -0.094554 1.98509 9.80382 
206 1 106.42 6.01892 1.97803 7.97505 
208 1 106.42 4.07513 1.82079 9.78313 
207 1 106.42 6.04936 19.6379 9.69643 
229 1 106.42 7.92402 4.23892 7.63248 
227 1 106.42 5.84992 4.18295 9.95084 
209 1 106.42 7.75276 19.5796 7.81092 
210 1 106.42 9.62254 1.80036 7.84831 
212 1 106.42 7.79032 1.93729 9.84171 
329 1 106.42 7.78203 4.15061 11.626 
310 1 106.42 9.54647 1.90638 11.6682 
214 1 106.42 13.614 1.82621 7.74707 
216 1 106.42 11.7294 2.00831 9.90805 
215 1 106.42 13.5856 19.5931 9.98533 
313 1 106.42 11.4584 0.030841 11.7206 
337 1 106.42 15.8879 3.97516 11.7618 
218 1 106.42 17.5274 2.05943 7.58096 
217 1 106.42 15.7633 19.8013 8.00396 
220 1 106.42 15.7127 2.27439 9.79548 
239 1 106.42 17.8429 4.09056 9.85829 
318 1 106.42 17.869 2.12669 11.9182 
221 1 106.42 19.5964 3.89015 7.69356 
223 1 106.42 2.17264 3.91477 9.70907 
222 1 106.42 2.0038 5.79353 7.64615 
322 1 106.42 2.25366 5.85882 11.9723 
228 1 106.42 3.93519 5.94502 9.7858 
341 1 106.42 0.0848492 7.90207 11.7893 
325 1 106.42 3.96209 3.86507 11.6514 
226 1 106.42 5.84592 5.98329 7.7242 
326 1 106.42 5.86779 6.07239 11.8638 
230 1 106.42 9.93432 5.87566 8.18819 
231 1 106.42 9.8894 3.93598 9.81245 
232 1 106.42 7.80308 5.77598 9.68085 
236 1 106.42 11.7112 5.91028 9.86718 
235 1 106.42 13.7529 3.79241 9.59719 
255 1 106.42 13.8171 7.96175 9.6694 
240 1 106.42 15.588 6.25948 9.87951 
357 1 106.42 15.6628 7.86655 11.9722 
241 1 106.42 19.8461 7.77324 7.67653 
224 1 106.42 19.6391 5.91412 9.50568 
259 1 106.42 17.8504 7.57537 10.204 
338 1 106.42 17.7386 5.84077 12.2318 
243 1 106.42 2.06064 7.55728 9.66035 
248 1 106.42 3.97064 9.60614 9.57439 
261 1 106.42 19.68 11.4319 7.65693 
244 1 106.42 0.0546187 9.75298 9.57353 
263 1 106.42 1.95746 11.8522 9.86035 
365 1 106.42 3.88271 11.6914 11.9007 
249 1 106.42 7.8429 7.97847 7.85111 
247 1 106.42 5.96259 7.57628 9.71704 
345 1 106.42 3.69593 7.98023 11.5408 
252 1 106.42 7.91795 9.9666 10.0284 
253 1 106.42 11.9736 8.0325 7.84825 
251 1 106.42 9.63481 7.95178 9.78854 
250 1 106.42 9.73272 10.1134 8.16588 
256 1 106.42 11.6985 9.76743 9.69333 
271 1 106.42 9.78303 11.9761 9.79786 
254 1 106.42 13.7056 9.77032 7.73792 
260 1 106.42 15.7588 9.70536 10.0097 
377 1 106.42 15.6563 11.5685 11.8518 
358 1 106.42 17.7479 10.044 11.8539 
279 1 106.42 17.6774 11.7278 9.92708 
268 1 106.42 3.90524 13.7193 9.49917 
283 1 106.42 1.93846 15.6553 9.70387 
264 1 106.42 0.0963344 13.5564 9.62072 
267 1 106.42 5.93175 11.6288 10.053 
366 1 106.42 5.65511 13.732 11.7598 
270 1 106.42 9.99423 13.9166 7.47076 
369 1 106.42 7.91446 11.8449 11.9479 
272 1 106.42 7.94573 13.8099 9.96218 
370 1 106.42 9.98177 13.8754 11.9544 
275 1 106.42 13.8269 11.7171 9.84562 
276 1 106.42 11.7589 13.6839 9.92113 
274 1 106.42 13.6118 13.8428 7.98413 
295 1 106.42 13.5364 15.767 9.59798 
374 1 106.42 13.731 13.9053 11.6126 
278 1 106.42 17.653 13.7454 7.90663 
280 1 106.42 15.6415 13.637 9.86598 
299 1 106.42 17.5471 15.6078 9.87789 
203 1 106.42 2.01082 19.6213 9.81494 
284 1 106.42 -0.023372 17.695 9.85711 
205 1 106.42 4.06035 19.5988 7.88241 
385 1 106.42 3.80046 15.809 11.9119 
288 1 106.42 4.04506 17.5971 9.91175 
305 1 106.42 4.01863 19.5171 11.7182 
287 1 106.42 6.11803 15.7737 10.0271 
386 1 106.42 6.02895 17.3066 12.1005 
290 1 106.42 9.84867 17.8678 7.86947 
211 1 106.42 9.5337 0.173315 9.56817 
389 1 106.42 7.85062 15.6058 12.1134 
291 1 106.42 9.82087 15.4633 9.97533 
292 1 106.42 8.03018 17.5999 9.83458 
390 1 106.42 9.66348 17.6128 12.0326 
297 1 106.42 15.6883 15.8081 7.97836 
296 1 106.42 11.5899 17.7944 10.0028 
300 1 106.42 15.6474 17.9352 9.86111 
219 1 106.42 17.5841 19.8379 9.7589 
298 1 106.42 17.658 17.4993 7.99484 
301 1 106.42 -0.0535481 19.6535 11.7993 
398 1 106.42 17.4224 17.7271 11.7905 
308 1 106.42 4.06519 1.88993 13.5323 
421 1 106.42 0.078448 3.58466 15.8524 
402 1 106.42 1.70675 1.68932 15.7563 
323 1 106.42 2.07916 3.73945 13.4651 
306 1 106.42 5.97777 1.96814 11.5706 
406 1 106.42 6.01751 1.79533 15.8455 
327 1 106.42 5.82911 3.92204 13.7729 
307 1 106.42 5.88353 19.4085 13.7259 
309 1 106.42 7.65096 -0.190889 11.905 
312 1 106.42 7.46096 1.77839 13.6131 
316 1 106.42 11.7825 1.94385 13.5413 
331 1 106.42 9.92108 3.89735 13.6125 
314 1 106.42 13.7578 2.00401 11.6568 
335 1 106.42 13.5987 3.99478 13.5939 
315 1 106.42 13.9985 0.0991859 13.6191 
321 1 106.42 0.159446 4.13544 11.8188 
304 1 106.42 19.7058 1.9015 13.6119 
320 1 106.42 15.7016 2.00441 13.5473 
319 1 106.42 17.5775 19.5429 13.4421 
437 1 106.42 15.7454 3.76023 15.7577 
343 1 106.42 1.86645 7.77466 13.9614 
324 1 106.42 0.0171474 5.58703 13.9784 
441 1 106.42 19.8077 7.86881 15.9655 
425 1 106.42 4.01811 3.92961 15.7167 
328 1 106.42 4.09563 6.08397 13.8224 
332 1 106.42 7.97185 5.80637 13.8061 
426 1 106.42 6.04704 5.86861 15.717 
330 1 106.42 9.61684 6.13434 11.7129 
351 1 106.42 9.60021 7.82793 13.6696 
433 1 106.42 11.5835 3.83686 15.6224 
430 1 106.42 9.92141 5.91695 15.5793 
334 1 106.42 13.812 5.88387 11.8612 
333 1 106.42 11.5918 4.08706 11.6671 
336 1 106.42 11.6551 5.94102 13.3331 
434 1 106.42 13.5663 5.65305 15.5466 
355 1 106.42 13.604 7.95732 13.7638 
340 1 106.42 15.7949 5.64087 13.8415 
339 1 106.42 17.6473 3.84229 13.7372 
359 1 106.42 17.6875 7.83882 13.9206 
438 1 106.42 17.5391 5.60255 15.7869 
342 1 106.42 1.90012 9.74498 11.758 
442 1 106.42 1.80662 9.71796 15.9672 
445 1 106.42 3.98904 7.90179 15.7292 
346 1 106.42 5.52633 9.65524 11.8276 
349 1 106.42 7.88076 8.14836 11.8995 
347 1 106.42 5.81347 7.88782 13.8135 
348 1 106.42 3.85227 9.74958 13.8286 
352 1 106.42 7.93661 10.056 13.6847 
449 1 106.42 7.86363 7.93569 15.6931 
469 1 106.42 8.05287 11.9541 15.9818 
350 1 106.42 9.73006 9.73714 11.8959 
473 1 106.42 11.9893 11.7762 15.872 
450 1 106.42 9.84956 9.82513 15.6978 
353 1 106.42 11.8867 7.90347 11.6548 
356 1 106.42 12.0554 10.0984 13.6951 
354 1 106.42 13.6693 9.90233 11.807 
375 1 106.42 13.5131 12.1648 13.8079 
360 1 106.42 15.7478 9.83692 13.6975 
344 1 106.42 0.119191 9.8069 13.925 
458 1 106.42 17.7531 9.73962 15.7758 
361 1 106.42 19.9313 11.6243 11.586 
379 1 106.42 17.9624 11.739 13.785 
362 1 106.42 2.05354 13.7155 11.4984 
363 1 106.42 1.89234 11.5904 13.8481 
364 1 106.42 0.114692 13.5972 13.4601 
367 1 106.42 5.88942 11.5556 13.7306 
368 1 106.42 3.98162 13.5372 13.8833 
387 1 106.42 5.5114 15.5393 14.0047 
372 1 106.42 7.62179 13.3893 13.9746 
373 1 106.42 11.6385 11.7328 11.8762 
371 1 106.42 10.0694 11.7013 13.9387 
391 1 106.42 9.72918 15.4604 13.9889 
393 1 106.42 11.7841 15.9057 11.7317 
376 1 106.42 11.7216 13.9131 13.9316 
395 1 106.42 13.8814 15.5138 13.9016 
474 1 106.42 13.8457 13.9203 16.021 
380 1 106.42 15.7969 13.6285 13.8716 
378 1 106.42 17.6275 13.7761 11.7717 
461 1 106.42 19.5937 11.6833 15.9677 
383 1 106.42 1.88826 15.3614 13.7796 
303 1 106.42 2.06127 19.4656 13.8269 
382 1 106.42 1.81633 17.8359 11.7383 
482 1 106.42 2.15213 17.6997 15.8714 
409 1 106.42 7.94327 19.8556 15.9849 
388 1 106.42 3.74098 17.4817 13.7195 
405 1 106.42 3.88382 19.7037 15.5209 
311 1 106.42 9.64179 19.5171 13.8285 
392 1 106.42 7.95551 17.6333 14.2887 
490 1 106.42 9.95074 17.7868 15.7198 
396 1 106.42 11.7552 17.7013 13.677 
493 1 106.42 11.9466 15.6368 15.802 
394 1 106.42 14.1819 17.7224 11.6892 
400 1 106.42 16.0061 17.3905 13.8845 
317 1 106.42 15.8832 19.8712 11.6855 
397 1 106.42 15.6575 15.7563 11.7045 
384 1 106.42 19.6461 17.6269 13.65 
381 1 106.42 19.8343 15.7427 11.5345 
399 1 106.42 17.7816 15.5165 13.472 
498 1 106.42 17.8643 17.6084 15.573 
2 1 106.42 1.84478 2.17091 -0.0745906 
423 1 106.42 2.02482 4.00287 17.4503 
404 1 106.42 -0.0912391 1.83719 17.7865 
21 1 106.42 19.8761 4.12073 19.4819 
401 1 106.42 -0.251414 19.5593 15.4836 
408 1 106.42 3.84625 1.97086 17.6319 
6 1 106.42 6.08929 2.00975 19.4608 
412 1 106.42 8.26555 2.33993 17.5514 
407 1 106.42 6.04066 0.153368 17.6951 
29 1 106.42 7.60517 4.09374 19.7319 
410 1 106.42 9.80187 2.15263 15.5921 
10 1 106.42 9.84408 2.2873 19.4761 
416 1 106.42 11.8703 2.11976 17.4836 
431 1 106.42 10.0042 4.46279 17.6184 
501 2 1.01 14.9671 4.7834 1.0887 
14 1 106.42 13.7164 1.75531 19.6703 
414 1 106.42 13.5352 1.95034 15.3831 
420 1 106.42 15.4548 1.86183 17.52 
415 1 106.42 13.5592 19.813 17.4963 
1 1 106.42 19.628 -0.0722061 0.141673 
18 1 106.42 17.9915 1.97053 19.7009 
418 1 106.42 17.3779 1.78005 15.3981 
422 1 106.42 2.23817 5.99415 15.7023 
22 1 106.42 2.11851 5.86627 19.3906 
424 1 106.42 0.0560301 5.84052 17.3182 
428 1 106.42 4.0972 5.70375 17.5962 
443 1 106.42 1.97522 7.86587 17.7504 
429 1 106.42 7.91143 3.8182 15.3753 
427 1 106.42 5.97745 3.62013 17.5389 
26 1 106.42 5.7424 6.00643 -0.115964 
432 1 106.42 7.80938 5.74836 17.463 
30 1 106.42 9.72723 5.99045 19.5881 
436 1 106.42 11.9937 6.10662 17.4615 
53 1 106.42 11.6617 7.77563 19.5446 
453 1 106.42 11.4695 7.88526 15.4335 
34 1 106.42 13.4459 5.83135 19.6137 
435 1 106.42 13.6905 3.99122 17.8009 
455 1 106.42 13.8125 7.87433 17.5685 
439 1 106.42 17.6929 3.4347 17.5995 
457 1 106.42 15.4962 7.52284 15.6884 
440 1 106.42 15.5028 5.68776 17.7136 
459 1 106.42 17.5421 7.90334 17.5587 
42 1 106.42 2.03999 9.92733 19.3892 
444 1 106.42 19.5463 9.94442 17.8458 
448 1 106.42 3.9758 9.92215 17.609 
463 1 106.42 1.77755 11.931 17.9428 
65 1 106.42 3.92762 12.0064 0.0906252 
446 1 106.42 5.9948 9.77791 15.7425 
447 1 106.42 5.89072 7.91764 17.6521 
452 1 106.42 7.98128 9.7691 17.6302 
451 1 106.42 9.68056 7.92128 17.7773 
471 1 106.42 10.0004 12.0475 17.8125 
73 1 106.42 11.7682 11.6169 19.5031 
454 1 106.42 13.8598 9.85658 15.6914 
456 1 106.42 11.73 9.81906 17.6193 
475 1 106.42 13.9284 11.8502 17.6496 
57 1 106.42 15.4783 7.83749 19.6513 
61 1 106.42 19.4022 11.9726 19.9158 
58 1 106.42 17.4326 9.58834 -0.157457 
460 1 106.42 15.6415 9.66211 17.6564 
479 1 106.42 17.5221 11.6765 17.8253 
62 1 106.42 1.86527 13.8887 19.9941 
462 1 106.42 1.85548 13.6351 15.7321 
483 1 106.42 2.17763 15.7572 17.6987 
468 1 106.42 3.7715 13.636 17.7571 
465 1 106.42 3.71488 11.8454 15.8555 
466 1 106.42 5.8992 13.6231 15.6769 
467 1 106.42 5.89422 11.8091 17.3988 
487 1 106.42 5.66481 15.8818 17.613 
70 1 106.42 9.85594 13.9903 19.8565 
470 1 106.42 10.0136 13.5301 15.7035 
472 1 106.42 7.82868 13.6847 17.8487 
93 1 106.42 11.9365 15.7157 -0.140704 
476 1 106.42 11.8907 13.8115 17.7254 
480 1 106.42 15.802 13.7958 17.6713 
495 1 106.42 13.9765 15.6824 17.5977 
477 1 106.42 15.7921 11.6625 15.625 
77 1 106.42 15.6122 11.792 0.111518 
464 1 106.42 19.8102 13.8545 17.8555 
478 1 106.42 17.8603 13.4314 15.6834 
499 1 106.42 17.7528 15.6373 17.7271 
485 1 106.42 3.63373 15.681 15.6557 
481 1 106.42 -0.0844953 15.4716 15.5232 
403 1 106.42 2.06672 19.6113 17.9061 
488 1 106.42 3.91797 17.8121 17.9051 
86 1 106.42 6.06521 17.8636 19.619 
486 1 106.42 5.6223 17.7502 15.7532 
489 1 106.42 7.78352 15.4208 15.9389 
491 1 106.42 9.84853 15.5841 17.7962 
492 1 106.42 8.24608 17.7073 17.4871 
413 1 106.42 11.798 0.131407 15.4716 
411 1 106.42 9.89413 19.847 17.6205 
497 1 106.42 16.2098 15.4684 15.7763 
496 1 106.42 11.8363 17.6122 17.7068 
494 1 106.42 13.8025 17.6774 15.7471 
417 1 106.42 15.6747 19.4466 15.532 
419 1 106.42 17.7507 19.6833 17.6479 
484 1 106.42 19.7999 17.5539 17.3753 
500 1 106.42 15.8364 18.0153 17.6427 
