ITEM: TIMESTEP
3300
ITEM: NUMBER OF ATOMS
501
ITEM: BOX BOUNDS pp pp pp
0.0000000000000000e+00 1.9629018200000001e+01
0.0000000000000000e+00 1.9629018200000001e+01
0.0000000000000000e+00 1.9629018200000001e+01
ITEM: ATOMS id type mass x y z 
2 1 106.42 2.10332 2.00673 0.135293 
102 1 106.42 1.88941 1.97994 3.7238 
8 1 106.42 4.01276 2.07591 1.99705 
6 1 106.42 5.9103 2.03697 0.0440531 
27 1 106.42 6.02252 3.92679 1.96699 
106 1 106.42 5.94523 2.01035 3.88918 
12 1 106.42 7.86829 1.89133 1.8459 
129 1 106.42 8.04263 3.92044 3.81151 
31 1 106.42 9.75918 3.79022 2.02863 
16 1 106.42 11.6666 1.85524 1.79525 
10 1 106.42 9.65958 1.8961 0.118094 
114 1 106.42 13.6569 1.96584 3.68966 
20 1 106.42 15.673 2.19615 1.86928 
35 1 106.42 13.6391 3.81649 1.64012 
15 1 106.42 13.5354 0.0825496 1.98023 
4 1 106.42 19.5553 2.08633 1.94441 
19 1 106.42 17.6358 0.0483817 2.02303 
118 1 106.42 17.5552 2.0249 3.808 
17 1 106.42 15.72 0.25933 0.058784 
23 1 106.42 2.02555 4.04938 1.98386 
28 1 106.42 3.93471 5.80895 2.1141 
22 1 106.42 2.12843 5.99036 0.104185 
41 1 106.42 0.0269691 7.72373 0.038202 
25 1 106.42 4.16107 3.95874 0.107632 
47 1 106.42 6.03667 7.74274 2.05889 
26 1 106.42 5.90234 5.97253 0.0137202 
126 1 106.42 6.05518 5.75018 3.85036 
32 1 106.42 7.93019 5.83823 1.8505 
51 1 106.42 9.70644 7.79099 2.05882 
130 1 106.42 9.78503 5.70214 3.8719 
30 1 106.42 10.0226 5.90748 0.215773 
153 1 106.42 11.7806 7.81607 3.84963 
36 1 106.42 11.9709 5.82151 2.15564 
40 1 106.42 15.6624 6.08643 1.92282 
137 1 106.42 15.5523 4.00605 3.76757 
134 1 106.42 13.8794 5.83686 3.89172 
37 1 106.42 15.7782 3.99506 0.113634 
24 1 106.42 19.5768 5.94878 1.98461 
39 1 106.42 17.7102 3.95993 1.94299 
138 1 106.42 17.6138 5.93155 3.82749 
38 1 106.42 17.5603 6.00043 0.0373493 
43 1 106.42 1.86098 7.95827 2.00711 
142 1 106.42 2.02224 9.76649 3.91332 
63 1 106.42 2.07725 11.4806 1.92756 
48 1 106.42 4.15455 9.71568 2.15881 
67 1 106.42 5.77744 11.654 1.82917 
45 1 106.42 4.06819 7.92955 0.133002 
52 1 106.42 7.86445 9.6645 2.02254 
71 1 106.42 9.74407 11.5906 2.21451 
50 1 106.42 9.8134 9.69723 0.101857 
53 1 106.42 11.6863 7.86401 0.183709 
55 1 106.42 13.7172 7.85383 1.93539 
56 1 106.42 11.8022 9.81426 2.17762 
75 1 106.42 13.6686 11.6749 1.99879 
154 1 106.42 13.8183 9.72614 3.92456 
77 1 106.42 15.5117 11.7002 0.0342166 
44 1 106.42 19.5197 9.89081 1.91396 
60 1 106.42 15.7253 9.68704 1.82288 
59 1 106.42 17.8214 7.9471 2.15073 
157 1 106.42 15.8614 7.86184 3.75469 
158 1 106.42 17.6933 10.0395 3.88992 
161 1 106.42 0.0600139 11.8576 3.68172 
64 1 106.42 0.171166 13.5223 1.76517 
83 1 106.42 2.11302 15.5153 2.15334 
62 1 106.42 2.25689 13.7198 0.0476033 
68 1 106.42 3.86365 13.6365 2.06614 
162 1 106.42 1.99526 13.5448 3.86058 
87 1 106.42 5.84716 15.649 1.89077 
72 1 106.42 7.77309 13.5635 2.04255 
166 1 106.42 5.87511 13.5012 3.73279 
189 1 106.42 7.78473 15.4084 3.87117 
76 1 106.42 11.7206 13.5944 1.87029 
91 1 106.42 9.70919 15.5966 1.72552 
193 1 106.42 11.7001 15.663 3.77769 
73 1 106.42 11.7723 11.8805 0.135723 
70 1 106.42 9.72374 13.6588 -0.000220033 
177 1 106.42 15.6654 11.969 3.66553 
74 1 106.42 13.7625 13.752 0.0154704 
80 1 106.42 15.6605 13.7709 2.01879 
197 1 106.42 15.6603 15.6461 3.81675 
79 1 106.42 17.5827 11.9683 1.8574 
178 1 106.42 17.827 13.6168 3.87545 
99 1 106.42 17.9053 15.6066 1.89313 
3 1 106.42 1.97082 19.5847 1.8059 
181 1 106.42 0.197199 15.8136 3.77639 
182 1 106.42 1.75527 17.7364 3.75924 
9 1 106.42 7.72976 19.5455 0.188119 
88 1 106.42 4.00621 17.4057 1.91958 
7 1 106.42 5.81404 19.4242 1.99511 
105 1 106.42 3.96596 19.468 3.65524 
89 1 106.42 7.63399 15.8575 0.167348 
92 1 106.42 7.97145 17.5667 2.08104 
11 1 106.42 9.77485 19.4502 1.91054 
96 1 106.42 11.6224 17.5829 2.02842 
190 1 106.42 9.63923 17.6311 3.88939 
95 1 106.42 13.5533 15.7145 1.83744 
100 1 106.42 15.6973 17.7705 1.87039 
117 1 106.42 15.6915 19.6363 3.72608 
194 1 106.42 13.597 17.6684 3.87032 
84 1 106.42 19.409 17.7865 1.91272 
198 1 106.42 17.7671 17.672 3.83431 
97 1 106.42 15.7952 15.9484 0.0149553 
103 1 106.42 2.15472 0.0978989 6.0749 
108 1 106.42 3.82107 2.24265 5.61344 
109 1 106.42 7.73765 0.123693 4.026 
112 1 106.42 7.79443 1.90877 5.86735 
127 1 106.42 6.11098 3.83891 5.96564 
107 1 106.42 5.64193 0.273985 5.9272 
225 1 106.42 3.94597 3.78303 7.76716 
110 1 106.42 9.75673 1.73683 4.00556 
133 1 106.42 11.595 3.86115 3.98968 
131 1 106.42 9.64323 3.77764 5.73421 
210 1 106.42 9.91258 1.8584 7.75512 
116 1 106.42 11.7976 1.93059 5.69521 
135 1 106.42 13.922 3.80799 5.90067 
115 1 106.42 13.5755 0.0482095 5.8697 
101 1 106.42 19.6082 0.048884 3.94747 
120 1 106.42 15.7589 1.79515 5.63807 
237 1 106.42 15.7551 3.64353 7.7894 
104 1 106.42 19.4773 1.90958 5.72141 
119 1 106.42 17.4794 0.00736708 5.63159 
121 1 106.42 19.6182 3.86934 3.92773 
201 1 106.42 19.5938 0.131442 7.62619 
123 1 106.42 1.77318 4.08221 5.84966 
122 1 106.42 1.79089 6.08935 4.07412 
125 1 106.42 3.84534 4.36145 3.97528 
143 1 106.42 2.15585 7.61737 6.08393 
149 1 106.42 7.80042 7.73155 4.17939 
128 1 106.42 3.94141 5.79406 6.27713 
147 1 106.42 5.81123 7.65774 6.01129 
145 1 106.42 3.99245 7.75412 4.06599 
226 1 106.42 5.97735 5.64803 7.86935 
132 1 106.42 8.08711 5.94166 5.9741 
136 1 106.42 11.7387 5.7473 5.84204 
249 1 106.42 7.99342 7.70687 7.81241 
155 1 106.42 13.8327 7.83069 5.71359 
234 1 106.42 13.708 5.80808 7.74462 
139 1 106.42 17.7114 4.16417 5.81738 
124 1 106.42 19.6312 5.86431 6.05855 
140 1 106.42 15.7205 6.04584 5.81981 
144 1 106.42 0.0636312 9.89927 5.92052 
163 1 106.42 1.99896 11.7674 6.09853 
148 1 106.42 3.89403 9.62931 5.97019 
242 1 106.42 2.14104 9.50758 7.78361 
165 1 106.42 3.99177 11.5562 4.03682 
146 1 106.42 6.06459 9.65308 4.29844 
151 1 106.42 10.0876 7.89807 5.93427 
150 1 106.42 10.0568 9.60483 3.91776 
152 1 106.42 8.09804 9.7284 5.87333 
169 1 106.42 7.86828 11.5739 3.95554 
171 1 106.42 10.2018 11.7211 6.08171 
257 1 106.42 15.6309 8.09842 7.79044 
173 1 106.42 11.866 11.7787 3.97585 
156 1 106.42 12.0681 9.77348 5.85304 
175 1 106.42 13.8875 11.7745 5.91459 
254 1 106.42 14.0602 9.92644 7.82719 
273 1 106.42 11.9219 11.6122 7.74707 
141 1 106.42 19.5974 8.10787 4.25824 
160 1 106.42 15.8772 10.0649 5.75282 
159 1 106.42 17.4974 7.97633 5.81366 
164 1 106.42 0.172312 13.9599 5.70696 
168 1 106.42 3.91078 13.8182 5.7661 
281 1 106.42 0.262115 15.614 7.6963 
167 1 106.42 5.825 11.8099 5.93337 
187 1 106.42 5.91564 15.5526 5.80236 
266 1 106.42 5.73183 13.7121 7.75684 
172 1 106.42 7.96095 13.3157 5.82648 
170 1 106.42 9.8885 13.6342 3.93741 
191 1 106.42 9.46002 15.633 5.7146 
270 1 106.42 9.81996 13.8391 7.80897 
293 1 106.42 11.5947 15.6613 7.66229 
174 1 106.42 13.5326 13.8635 3.93716 
176 1 106.42 11.9331 13.7903 5.98203 
180 1 106.42 15.6887 13.651 5.78029 
274 1 106.42 13.7373 13.6967 7.70718 
179 1 106.42 17.6294 11.9791 5.9018 
501 2 1.01 19.6587 13.2331 7.38157 
183 1 106.42 2.05275 15.7774 5.69248 
188 1 106.42 3.88348 17.6819 5.94233 
282 1 106.42 2.07206 17.7312 7.86397 
184 1 106.42 0.149987 17.7466 5.93239 
185 1 106.42 3.96784 15.7459 4.10926 
186 1 106.42 5.95003 17.6346 4.12459 
209 1 106.42 7.77491 19.616 7.64481 
192 1 106.42 7.73262 17.8008 6.03186 
285 1 106.42 3.91839 15.8141 7.7901 
113 1 106.42 11.7479 19.5267 3.95635 
111 1 106.42 9.75907 19.5024 5.85048 
196 1 106.42 11.6022 17.3377 5.79501 
213 1 106.42 11.7922 19.4681 7.61808 
195 1 106.42 13.8243 15.8232 5.74035 
200 1 106.42 15.515 17.792 5.79001 
294 1 106.42 13.6639 17.5678 7.73131 
199 1 106.42 17.8759 15.9158 5.86409 
298 1 106.42 17.7257 17.6495 7.74238 
202 1 106.42 1.87713 2.12117 7.83862 
203 1 106.42 1.71444 0.0126985 9.69003 
208 1 106.42 3.66342 1.81705 9.78041 
204 1 106.42 0.0128905 1.87699 9.91299 
206 1 106.42 5.92156 1.97086 7.89593 
207 1 106.42 5.6657 -0.00286461 9.97619 
212 1 106.42 7.75116 1.84149 9.64588 
205 1 106.42 3.92756 0.0636324 7.96352 
306 1 106.42 5.96412 1.93969 11.7619 
309 1 106.42 7.81513 0.0170586 11.766 
229 1 106.42 8.06339 3.91345 8.00821 
231 1 106.42 10.0423 3.70413 9.99254 
211 1 106.42 9.81638 0.343003 9.86885 
214 1 106.42 13.7693 1.8547 7.87452 
233 1 106.42 11.8314 3.7165 7.87246 
216 1 106.42 11.9277 1.79874 9.75203 
220 1 106.42 15.4639 1.87484 9.75331 
337 1 106.42 15.6957 3.774 11.7569 
314 1 106.42 13.568 1.72579 11.5679 
333 1 106.42 11.8681 3.8925 11.6922 
218 1 106.42 17.707 1.97151 7.87254 
239 1 106.42 17.7644 3.85754 9.92065 
219 1 106.42 17.7122 0.0335968 9.8657 
223 1 106.42 1.80769 3.98188 9.88684 
222 1 106.42 1.91591 5.91126 8.14089 
243 1 106.42 1.74998 7.85668 9.95732 
228 1 106.42 3.86939 5.90252 9.91698 
321 1 106.42 0.045679 3.94587 11.771 
227 1 106.42 5.6824 3.95844 9.86636 
247 1 106.42 5.96922 7.84226 9.8712 
232 1 106.42 7.87522 5.88543 9.96072 
230 1 106.42 10.004 5.71656 7.87143 
251 1 106.42 9.78785 7.60632 9.67219 
329 1 106.42 7.98657 3.95601 11.7096 
253 1 106.42 11.9876 7.75651 7.87479 
235 1 106.42 13.834 4.04051 9.80294 
236 1 106.42 11.8687 5.82174 9.81993 
334 1 106.42 13.8741 5.92721 11.5925 
221 1 106.42 19.5834 4.18032 7.85694 
238 1 106.42 17.4581 5.8667 7.90297 
224 1 106.42 19.4365 6.08004 10.0643 
240 1 106.42 15.905 5.84391 9.82931 
248 1 106.42 3.85511 9.89498 9.95697 
241 1 106.42 0.0321795 7.86014 7.86622 
365 1 106.42 3.89704 11.7337 11.6751 
245 1 106.42 4.23514 7.89819 8.20765 
246 1 106.42 6.16142 9.80192 7.89222 
265 1 106.42 4.0206 11.5336 7.9615 
267 1 106.42 6.09492 11.5626 10.0093 
250 1 106.42 9.76592 9.63355 8.15771 
252 1 106.42 7.89367 9.43454 9.89468 
350 1 106.42 9.82663 9.67495 11.6819 
269 1 106.42 8.11885 11.6259 7.89326 
255 1 106.42 13.8594 7.92179 9.84493 
256 1 106.42 11.7909 9.83629 9.67185 
258 1 106.42 17.7592 9.96929 7.85016 
244 1 106.42 19.5177 9.81834 9.91416 
259 1 106.42 17.6979 7.87104 9.75754 
260 1 106.42 15.7052 9.74731 9.7524 
358 1 106.42 17.6629 9.832 11.5492 
262 1 106.42 2.21085 13.6946 7.91349 
263 1 106.42 1.88987 11.9819 9.89165 
264 1 106.42 -0.00874404 13.7492 9.68109 
261 1 106.42 0.178643 11.9401 7.9867 
268 1 106.42 3.88513 13.6622 9.90929 
385 1 106.42 3.75739 15.6092 11.6068 
289 1 106.42 7.681 15.6847 7.85926 
272 1 106.42 7.71343 13.7071 9.55702 
389 1 106.42 7.78186 15.4964 11.5803 
271 1 106.42 9.94748 11.8031 9.752 
369 1 106.42 7.86952 11.7987 11.7084 
370 1 106.42 9.83637 13.7743 11.5753 
291 1 106.42 9.77434 15.6546 9.86644 
275 1 106.42 13.7699 12.0539 9.77874 
276 1 106.42 11.8773 13.6439 9.74718 
280 1 106.42 15.6152 13.9274 9.75062 
377 1 106.42 15.6864 12.1301 11.7119 
278 1 106.42 17.7401 13.855 7.95849 
297 1 106.42 15.8113 15.6896 7.87586 
277 1 106.42 15.9755 11.761 7.99116 
279 1 106.42 17.7152 11.9969 10.1435 
283 1 106.42 1.96334 15.7243 9.88988 
284 1 106.42 0.0783187 17.6064 9.75115 
288 1 106.42 3.76278 17.6824 10.0232 
382 1 106.42 1.92379 17.8091 11.7693 
286 1 106.42 5.75223 17.6974 7.90034 
287 1 106.42 5.82138 15.7258 9.78357 
386 1 106.42 5.92123 17.5603 11.725 
292 1 106.42 7.92149 17.6444 9.8593 
290 1 106.42 9.71165 17.7081 7.95596 
296 1 106.42 11.6435 17.7743 9.90692 
390 1 106.42 9.64417 17.5826 11.692 
215 1 106.42 13.655 19.5636 9.63407 
295 1 106.42 13.3346 15.7583 9.46797 
394 1 106.42 13.6758 17.8167 11.6557 
300 1 106.42 15.6282 17.7804 9.6986 
397 1 106.42 15.5757 15.8077 11.5584 
217 1 106.42 15.8366 19.5496 7.89129 
299 1 106.42 17.7704 15.8865 9.76802 
301 1 106.42 0.0163995 0.100502 11.79 
302 1 106.42 2.10056 1.83409 11.8514 
323 1 106.42 1.81753 3.78612 13.8725 
303 1 106.42 2.07563 0.194096 13.8461 
305 1 106.42 4.04197 0.123695 11.8929 
308 1 106.42 4.10429 2.22708 14.0025 
312 1 106.42 7.78353 1.74994 13.8678 
307 1 106.42 5.89699 0.0455464 13.9116 
310 1 106.42 9.53627 2.0472 11.9181 
316 1 106.42 11.885 2.00006 13.5677 
320 1 106.42 15.2605 1.96969 13.8425 
437 1 106.42 15.5304 3.80611 15.6165 
433 1 106.42 11.8839 3.73493 15.5883 
318 1 106.42 17.6669 2.12391 11.9192 
304 1 106.42 19.4587 2.06287 13.5698 
317 1 106.42 15.8118 0.217265 11.8297 
319 1 106.42 17.6233 0.215765 13.9158 
401 1 106.42 19.4591 0.120672 15.5842 
325 1 106.42 3.83045 3.95775 11.888 
322 1 106.42 2.01709 5.74552 11.8754 
343 1 106.42 1.9152 7.85348 13.7239 
328 1 106.42 3.85476 5.83429 13.8116 
345 1 106.42 3.72743 7.76805 11.791 
422 1 106.42 1.86074 5.7459 15.6523 
326 1 106.42 5.96839 5.79633 11.8276 
327 1 106.42 6.0976 3.96001 13.7827 
347 1 106.42 5.86024 7.66129 13.5169 
426 1 106.42 6.05354 5.77689 15.5467 
330 1 106.42 9.95552 5.89116 11.8682 
353 1 106.42 11.7479 7.81074 11.8046 
332 1 106.42 8.0371 5.79891 13.7861 
349 1 106.42 7.9472 7.75614 11.9169 
331 1 106.42 9.9847 3.95792 13.9611 
351 1 106.42 9.83908 7.72358 13.9015 
449 1 106.42 7.85912 7.62631 15.5277 
357 1 106.42 15.4514 7.77634 11.8151 
335 1 106.42 13.7714 4.04491 13.6868 
336 1 106.42 11.8375 5.9623 13.6782 
340 1 106.42 15.6541 5.90585 13.9087 
339 1 106.42 17.6042 4.06758 13.8926 
338 1 106.42 17.3746 5.8208 11.8785 
324 1 106.42 19.5739 5.81675 13.7256 
342 1 106.42 1.63355 9.88208 11.8333 
348 1 106.42 3.77256 9.67944 13.6769 
346 1 106.42 5.92006 9.71465 11.9103 
367 1 106.42 5.96713 11.7027 13.739 
352 1 106.42 7.99989 9.78892 13.5739 
356 1 106.42 11.7053 9.75636 13.7717 
371 1 106.42 9.90107 11.7321 13.736 
450 1 106.42 9.75822 9.82529 15.6532 
473 1 106.42 11.6908 11.7789 15.5512 
354 1 106.42 13.7344 9.97954 11.8784 
355 1 106.42 13.807 7.89005 13.7552 
454 1 106.42 13.9649 9.99747 15.6385 
341 1 106.42 19.283 7.89466 11.9768 
441 1 106.42 19.5554 7.88886 15.5292 
360 1 106.42 15.7361 10.071 13.5786 
344 1 106.42 19.4688 9.8294 13.7207 
359 1 106.42 17.4808 8.05535 13.8097 
458 1 106.42 17.5368 9.74457 15.6715 
363 1 106.42 2.16316 11.8566 13.7602 
362 1 106.42 1.80975 13.8953 11.8163 
364 1 106.42 0.0705073 14.0365 13.7929 
462 1 106.42 2.04222 13.7896 15.5605 
361 1 106.42 0.0155448 11.9065 12.043 
366 1 106.42 5.72929 13.8245 11.7976 
368 1 106.42 3.9515 13.8137 13.6938 
466 1 106.42 5.96797 13.5828 15.5781 
372 1 106.42 7.8278 13.7271 13.6043 
387 1 106.42 5.85758 15.5591 13.836 
376 1 106.42 11.8003 13.9821 13.638 
470 1 106.42 9.80612 13.878 15.5746 
374 1 106.42 13.8284 13.9741 11.7752 
373 1 106.42 11.8267 11.8192 11.7827 
375 1 106.42 13.6292 12.1101 13.7065 
380 1 106.42 15.515 13.8343 13.8277 
378 1 106.42 17.6774 14.1136 11.8815 
379 1 106.42 17.5392 11.9618 13.7355 
461 1 106.42 19.6028 11.8341 15.4524 
478 1 106.42 17.6417 13.8141 15.5135 
383 1 106.42 1.97064 15.884 13.7148 
384 1 106.42 0.0310438 17.7024 13.9806 
388 1 106.42 4.06052 17.6704 13.7438 
392 1 106.42 7.84862 17.6855 13.4998 
489 1 106.42 7.80529 15.7994 15.5368 
486 1 106.42 5.81574 17.6405 15.5909 
313 1 106.42 11.5883 19.4932 11.9127 
393 1 106.42 11.6888 15.765 11.8253 
311 1 106.42 9.75261 19.5134 13.9524 
391 1 106.42 9.60748 15.7968 13.6505 
396 1 106.42 11.5586 17.6703 13.8611 
315 1 106.42 13.5989 19.4053 13.6736 
395 1 106.42 13.8212 16.0252 13.7494 
494 1 106.42 13.5212 17.5345 15.7158 
381 1 106.42 19.5586 15.9753 11.9116 
400 1 106.42 15.895 17.8206 13.5367 
398 1 106.42 17.7882 17.8464 11.7923 
399 1 106.42 17.6495 15.8468 13.8034 
402 1 106.42 1.81925 1.96157 15.7949 
403 1 106.42 1.94641 0.0139561 17.7832 
408 1 106.42 3.85674 2.13205 17.8016 
1 1 106.42 0.146296 0.158613 19.62 
406 1 106.42 5.58261 2.10852 15.9491 
5 1 106.42 3.90893 0.0734584 19.6511 
412 1 106.42 7.72777 1.99735 17.5667 
405 1 106.42 3.98959 0.0417893 15.8441 
407 1 106.42 5.79514 0.0528938 17.7791 
429 1 106.42 7.97377 3.89205 15.7674 
410 1 106.42 9.74431 1.85926 15.8831 
416 1 106.42 11.6231 2.03355 17.8444 
431 1 106.42 9.70909 3.91657 17.5765 
411 1 106.42 9.53435 0.0547399 17.7058 
413 1 106.42 11.4771 0.156034 15.7408 
14 1 106.42 13.6837 1.92991 19.5253 
414 1 106.42 13.6105 1.67119 15.893 
435 1 106.42 13.8905 3.75146 17.605 
18 1 106.42 17.8545 2.10056 19.6435 
418 1 106.42 17.5709 1.97122 15.8747 
421 1 106.42 19.3831 3.92788 15.806 
420 1 106.42 15.7051 2.00964 17.7684 
404 1 106.42 19.5864 2.03187 17.5669 
419 1 106.42 17.6133 0.0570818 17.8303 
439 1 106.42 17.6982 3.92738 17.6789 
423 1 106.42 1.82174 4.04941 17.6373 
425 1 106.42 3.8669 4.06933 15.8621 
428 1 106.42 3.89693 6.0302 17.6223 
445 1 106.42 3.89825 7.80628 15.7064 
427 1 106.42 5.87375 4.09717 17.7107 
432 1 106.42 7.74433 5.82321 17.5663 
447 1 106.42 5.8558 7.8344 17.5814 
29 1 106.42 7.87866 3.94246 19.5242 
33 1 106.42 11.762 3.94778 19.5593 
49 1 106.42 7.88105 7.70153 19.6031 
430 1 106.42 10.04 5.98417 15.8814 
34 1 106.42 13.6849 5.76826 19.5448 
434 1 106.42 13.7325 5.90576 15.7551 
436 1 106.42 11.7947 5.76171 17.8282 
21 1 106.42 19.5642 4.14728 19.4541 
440 1 106.42 15.7456 5.8272 17.6295 
438 1 106.42 17.7148 6.05023 15.7739 
424 1 106.42 19.6064 6.02183 17.7059 
442 1 106.42 1.86792 9.74953 15.7719 
42 1 106.42 1.88297 9.92106 19.3214 
443 1 106.42 2.04724 7.89969 17.6372 
65 1 106.42 3.85246 11.7306 19.6123 
46 1 106.42 6.02972 9.68552 19.4362 
446 1 106.42 6.07859 9.61256 15.8256 
465 1 106.42 3.95697 11.6107 15.7875 
448 1 106.42 3.95166 9.75945 17.6634 
467 1 106.42 6.04707 11.674 17.7298 
69 1 106.42 8.14115 11.6038 19.5464 
451 1 106.42 9.81352 7.93243 17.6727 
452 1 106.42 7.96222 9.7167 17.7456 
469 1 106.42 7.96234 11.6913 15.8406 
57 1 106.42 15.7094 7.89494 19.5439 
457 1 106.42 15.5856 7.90981 15.8494 
453 1 106.42 11.9414 7.90202 15.8165 
456 1 106.42 11.8364 9.65111 17.6845 
54 1 106.42 13.6397 9.86894 19.4676 
455 1 106.42 13.906 7.86374 17.7308 
475 1 106.42 13.6724 11.7322 17.5803 
460 1 106.42 15.6318 9.96807 17.7127 
459 1 106.42 17.9022 7.83976 17.5714 
58 1 106.42 17.5233 9.73573 19.5355 
444 1 106.42 19.548 9.9619 17.6267 
463 1 106.42 2.01773 12.0052 17.5098 
485 1 106.42 3.87739 15.6449 15.8686 
483 1 106.42 1.96777 15.658 17.8377 
464 1 106.42 0.0241266 13.6626 17.4938 
468 1 106.42 3.91302 13.6957 17.7435 
85 1 106.42 4.23394 15.6681 19.5352 
66 1 106.42 5.78801 13.6183 19.5491 
487 1 106.42 6.0082 15.639 17.6332 
93 1 106.42 11.6879 15.3819 19.2925 
493 1 106.42 11.7722 15.5836 15.7646 
471 1 106.42 10.0578 11.9205 17.6599 
472 1 106.42 7.8782 13.8494 17.4405 
491 1 106.42 9.64373 15.4338 17.5489 
474 1 106.42 13.742 13.8669 16.038 
476 1 106.42 11.7914 13.6983 17.5884 
78 1 106.42 17.8133 13.7773 19.5373 
61 1 106.42 19.5996 12.0051 19.451 
477 1 106.42 15.8216 11.9432 15.7516 
479 1 106.42 17.6341 11.8078 17.5023 
480 1 106.42 15.7901 13.703 17.8474 
499 1 106.42 17.7117 15.6562 17.9512 
81 1 106.42 0.118391 15.7896 19.5797 
82 1 106.42 2.0022 17.5409 19.6006 
482 1 106.42 2.17987 17.5485 15.7825 
484 1 106.42 0.0387474 18.0243 17.6584 
481 1 106.42 0.165035 15.8231 15.9426 
409 1 106.42 7.68391 19.4558 15.8082 
86 1 106.42 5.87994 17.8128 19.5662 
488 1 106.42 4.01377 17.6056 17.4954 
492 1 106.42 7.90146 17.6872 17.7259 
490 1 106.42 9.78634 17.5198 15.8297 
13 1 106.42 11.7261 19.5781 19.4555 
90 1 106.42 10.0004 17.4799 19.6048 
496 1 106.42 11.7329 17.6182 17.5694 
94 1 106.42 13.4261 17.7461 19.6085 
417 1 106.42 15.6485 19.6063 15.707 
497 1 106.42 15.6907 15.7734 15.7566 
495 1 106.42 13.6569 15.8252 17.7407 
415 1 106.42 13.9027 19.3804 17.5553 
500 1 106.42 15.6558 17.5314 17.569 
98 1 106.42 17.5942 17.7889 19.4926 
498 1 106.42 17.6558 17.6692 15.8823 
