ITEM: TIMESTEP
33900
ITEM: NUMBER OF ATOMS
501
ITEM: BOX BOUNDS pp pp pp
0.0000000000000000e+00 1.9629018200000001e+01
0.0000000000000000e+00 1.9629018200000001e+01
0.0000000000000000e+00 1.9629018200000001e+01
ITEM: ATOMS id type mass x y z 
23 1 106.42 1.69376 4.00629 1.93052 
8 1 106.42 3.67956 1.78397 2.26376 
3 1 106.42 1.94691 -0.150251 1.75874 
12 1 106.42 7.49993 1.82258 1.92695 
129 1 106.42 7.6314 4.04927 3.95142 
5 1 106.42 4.05737 0.156583 0.0780859 
7 1 106.42 5.66519 19.5937 2.30614 
11 1 106.42 9.82579 0.266381 2.02857 
13 1 106.42 11.9341 0.0850771 0.0100846 
113 1 106.42 11.8804 -0.251674 3.95157 
16 1 106.42 11.7527 2.00752 2.06715 
20 1 106.42 15.4859 1.82987 2.26165 
14 1 106.42 13.5541 2.15955 0.0239737 
137 1 106.42 15.7007 3.88951 3.94654 
4 1 106.42 19.6492 2.02805 2.04422 
37 1 106.42 15.7517 3.81869 0.0153064 
18 1 106.42 17.7434 2.01113 0.12071 
125 1 106.42 3.89258 4.03114 3.79698 
43 1 106.42 1.93298 7.59351 1.66891 
28 1 106.42 3.95597 5.80359 1.9731 
122 1 106.42 1.90445 5.82162 3.88287 
145 1 106.42 3.79318 7.84652 3.83047 
27 1 106.42 5.75486 3.85372 1.85388 
25 1 106.42 3.85789 3.75116 19.3683 
32 1 106.42 7.62518 5.87723 2.12436 
31 1 106.42 9.66337 3.77455 2.00703 
153 1 106.42 11.8568 7.57145 3.94726 
51 1 106.42 9.93745 7.66817 1.83353 
130 1 106.42 9.70328 5.76771 3.83914 
33 1 106.42 11.6595 3.89241 -0.0278073 
36 1 106.42 11.7888 5.62027 1.86061 
35 1 106.42 13.8867 3.97397 1.79563 
134 1 106.42 13.8539 5.75723 3.71021 
501 2 1.01 15.8509 5.66629 19.6554 
34 1 106.42 14.0896 6.1765 0.139729 
57 1 106.42 15.822 7.95821 0.179866 
39 1 106.42 17.71 3.78137 2.16829 
40 1 106.42 15.8048 5.85165 1.94393 
24 1 106.42 19.563 6.0483 2.08641 
59 1 106.42 17.5401 7.83426 2.2207 
138 1 106.42 17.6359 5.64403 3.93399 
141 1 106.42 0.149573 7.94765 3.87336 
63 1 106.42 2.09518 11.599 2.03068 
48 1 106.42 3.88646 9.4735 1.90524 
165 1 106.42 3.96436 11.9738 3.98972 
47 1 106.42 6.09332 7.98543 1.94906 
146 1 106.42 5.5479 9.89992 3.95934 
67 1 106.42 5.89874 11.6608 1.89204 
52 1 106.42 8.05069 9.78757 2.05547 
56 1 106.42 11.7402 9.81357 2.21469 
55 1 106.42 13.6787 7.98579 2.15226 
54 1 106.42 13.6515 9.66219 19.5996 
60 1 106.42 15.7091 9.76082 2.21046 
177 1 106.42 15.7959 11.6464 4.09934 
77 1 106.42 15.3656 11.7624 -0.0658903 
44 1 106.42 19.6285 9.6175 1.71164 
161 1 106.42 19.3106 11.7567 3.60734 
158 1 106.42 17.6795 9.77235 3.99062 
162 1 106.42 2.17547 13.7209 3.84997 
65 1 106.42 3.90133 11.7884 0.158039 
62 1 106.42 1.95158 13.6825 -0.0310909 
68 1 106.42 3.92089 13.8274 1.87531 
166 1 106.42 5.759 13.5853 3.77291 
72 1 106.42 7.54301 13.6793 2.01803 
169 1 106.42 8.05959 11.6408 3.96042 
71 1 106.42 9.84192 11.829 1.83918 
173 1 106.42 11.8065 12.063 3.88708 
170 1 106.42 9.77872 13.7695 3.83375 
70 1 106.42 9.5795 13.6592 0.043056 
75 1 106.42 13.6363 11.7013 1.75375 
76 1 106.42 11.7305 13.8797 1.96744 
74 1 106.42 13.7196 13.8019 0.00340138 
174 1 106.42 13.8319 13.5414 3.554 
64 1 106.42 19.5688 13.8185 2.06977 
79 1 106.42 17.4455 11.785 1.79606 
80 1 106.42 15.7399 13.9332 2.00555 
78 1 106.42 17.6486 13.89 0.117059 
61 1 106.42 19.6674 11.937 -0.0568651 
101 1 106.42 0.0944833 19.7225 3.7451 
83 1 106.42 2.14198 15.6661 1.92888 
182 1 106.42 2.12158 17.6936 3.67391 
1 1 106.42 0.082034 19.5536 -0.00991776 
87 1 106.42 5.98729 15.8481 2.14658 
88 1 106.42 4.05901 17.5887 1.7325 
186 1 106.42 6.04343 17.5628 4.24061 
91 1 106.42 9.69464 15.7044 1.7934 
92 1 106.42 7.7426 17.8326 1.74242 
189 1 106.42 7.88638 15.9018 3.61852 
190 1 106.42 9.78474 17.7511 3.5852 
193 1 106.42 11.6248 15.8766 3.93726 
15 1 106.42 13.6768 19.6657 2.1002 
95 1 106.42 13.7488 15.908 1.97096 
96 1 106.42 11.8611 17.7148 1.86885 
19 1 106.42 17.3954 0.106974 1.9839 
84 1 106.42 19.8524 17.7356 2.10296 
100 1 106.42 15.7313 17.5449 1.87612 
17 1 106.42 15.7723 0.158485 -0.0420963 
99 1 106.42 17.8048 15.6976 1.88467 
98 1 106.42 17.6214 17.6284 -0.0969868 
102 1 106.42 1.903 2.00945 3.81869 
121 1 106.42 19.508 3.86142 4.13214 
108 1 106.42 3.72143 1.68389 6.02028 
104 1 106.42 0.349488 1.89244 5.68727 
123 1 106.42 2.04001 3.77397 5.89327 
106 1 106.42 5.81213 1.97359 4.09715 
112 1 106.42 8.08393 1.64573 5.85106 
127 1 106.42 5.7689 4.152 5.66942 
225 1 106.42 3.89509 3.97407 7.75571 
110 1 106.42 9.72485 2.05515 3.87225 
131 1 106.42 9.72525 3.83533 5.85335 
116 1 106.42 11.4998 1.848 5.77453 
233 1 106.42 11.7077 3.62401 7.92734 
114 1 106.42 13.5499 2.25147 4.20592 
115 1 106.42 13.7626 0.0715298 5.91803 
117 1 106.42 15.5412 -0.0180846 3.98169 
118 1 106.42 17.6549 1.80996 3.97037 
120 1 106.42 15.5627 1.99944 5.92021 
139 1 106.42 17.4979 3.94006 6.14072 
218 1 106.42 17.7885 2.089 7.86692 
217 1 106.42 15.7047 -0.0081975 7.62789 
124 1 106.42 0.241145 5.90276 5.98516 
221 1 106.42 0.0685074 4.04522 7.68124 
222 1 106.42 2.05991 5.92807 7.69024 
241 1 106.42 0.170154 7.93471 7.87889 
245 1 106.42 4.21653 7.85068 7.79095 
128 1 106.42 4.21357 6.03363 5.67134 
126 1 106.42 5.92267 6.15085 3.8317 
133 1 106.42 11.6614 4.02091 3.81939 
132 1 106.42 8.02797 5.78953 5.81028 
136 1 106.42 11.8225 5.66116 6.20108 
229 1 106.42 7.75131 3.73412 7.92277 
249 1 106.42 7.97811 7.99316 7.48155 
157 1 106.42 15.5969 7.64767 3.97293 
135 1 106.42 13.7958 3.83945 6.0286 
140 1 106.42 15.6697 5.67601 5.59984 
155 1 106.42 13.4378 7.69175 5.8149 
257 1 106.42 15.8379 7.58114 7.76464 
159 1 106.42 17.8462 7.60769 5.32613 
142 1 106.42 1.97099 9.85921 4.01283 
143 1 106.42 2.17593 7.88573 5.74314 
242 1 106.42 2.0766 9.55449 7.84304 
144 1 106.42 0.00884937 9.75408 5.89222 
149 1 106.42 7.99543 7.97661 4.00223 
148 1 106.42 3.74007 10.054 6.05665 
147 1 106.42 6.04732 8.0684 5.95663 
246 1 106.42 5.90551 9.75487 7.97922 
167 1 106.42 6.07812 11.724 5.94385 
152 1 106.42 7.96852 9.84939 5.90284 
151 1 106.42 10.2079 7.98133 5.96075 
150 1 106.42 9.83585 9.84174 4.058 
156 1 106.42 11.7357 10.1184 5.71121 
154 1 106.42 13.718 9.98057 3.97855 
160 1 106.42 15.7648 9.4175 5.86529 
254 1 106.42 13.7894 9.86137 7.77615 
179 1 106.42 17.5987 11.4528 5.92459 
261 1 106.42 19.4317 11.8888 7.92286 
163 1 106.42 1.50691 11.7403 5.7547 
262 1 106.42 2.13004 13.685 7.95937 
181 1 106.42 19.5688 15.7637 3.99739 
164 1 106.42 -0.0579436 13.7701 6.03868 
183 1 106.42 2.26402 15.7993 5.84337 
168 1 106.42 4.30787 13.7395 5.95133 
187 1 106.42 5.7665 15.5562 5.86903 
171 1 106.42 9.80993 11.9869 6.1551 
172 1 106.42 7.85488 13.872 5.75964 
270 1 106.42 9.72775 13.9655 8.02255 
176 1 106.42 11.6676 13.6964 5.82868 
175 1 106.42 13.9777 12.0582 5.72291 
195 1 106.42 13.6081 15.6304 5.69178 
180 1 106.42 15.7395 13.8793 5.8241 
178 1 106.42 17.648 13.5883 3.86911 
199 1 106.42 17.3815 15.8187 5.94271 
278 1 106.42 17.6425 13.5476 7.57684 
103 1 106.42 1.71241 19.2705 5.80082 
105 1 106.42 3.85485 19.6081 4.23608 
285 1 106.42 3.63423 15.9649 8.08904 
185 1 106.42 3.95574 15.7689 3.86647 
184 1 106.42 19.6068 17.3155 5.92507 
107 1 106.42 5.75672 19.6229 6.12778 
188 1 106.42 4.05844 17.6695 5.84683 
192 1 106.42 7.83136 17.7542 5.90638 
209 1 106.42 7.67476 19.5658 7.90125 
109 1 106.42 7.77788 19.6571 3.87202 
111 1 106.42 9.80229 19.3163 6.11152 
289 1 106.42 7.69967 15.657 7.89191 
191 1 106.42 9.61417 16.0154 5.71822 
194 1 106.42 13.8408 17.4847 4.06582 
196 1 106.42 11.7658 17.7087 6.0162 
197 1 106.42 15.6014 15.671 4.03492 
198 1 106.42 17.5429 17.7696 3.66415 
119 1 106.42 17.8763 19.4027 5.5338 
200 1 106.42 15.6074 17.6581 5.88667 
202 1 106.42 1.77671 1.77422 7.85225 
302 1 106.42 2.22646 2.1629 11.6902 
208 1 106.42 3.90697 2.01028 9.58245 
223 1 106.42 1.65804 3.76959 9.75646 
203 1 106.42 1.95976 0.00947813 9.74352 
301 1 106.42 0.0965027 0.396359 11.6469 
206 1 106.42 5.89343 2.06853 7.79739 
207 1 106.42 6.02518 0.1297 9.93609 
325 1 106.42 3.9266 4.10321 11.6348 
306 1 106.42 5.70512 1.94631 11.9161 
213 1 106.42 11.7482 0.00174093 8.13727 
210 1 106.42 9.64191 1.94356 7.80422 
212 1 106.42 7.91254 2.11141 9.98042 
216 1 106.42 11.365 1.90489 9.86739 
313 1 106.42 11.6583 19.3861 11.7049 
214 1 106.42 13.8947 2.115 8.05977 
215 1 106.42 13.6712 0.171249 9.7778 
235 1 106.42 13.6689 4.02216 9.97141 
314 1 106.42 13.4643 2.00511 11.7329 
201 1 106.42 19.3665 0.0831525 7.77563 
204 1 106.42 -0.0823644 2.07668 9.63311 
337 1 106.42 15.5803 3.89505 11.7452 
220 1 106.42 15.8919 2.23815 9.48453 
219 1 106.42 17.4795 0.0713849 9.75959 
317 1 106.42 15.459 0.459056 11.4679 
228 1 106.42 3.63452 5.69948 9.76349 
341 1 106.42 0.0124 7.59197 11.6831 
224 1 106.42 0.176677 5.7071 10.0286 
243 1 106.42 2.0091 8.12278 9.89642 
227 1 106.42 5.82549 3.85827 9.70691 
329 1 106.42 7.66723 3.6942 11.8817 
226 1 106.42 6.10007 5.76942 7.88958 
232 1 106.42 7.87866 6.13678 9.86433 
247 1 106.42 5.87398 7.99687 9.85377 
230 1 106.42 9.85606 6.02919 7.52943 
231 1 106.42 9.53702 4.0176 9.72595 
236 1 106.42 11.7257 5.80643 9.50743 
330 1 106.42 9.78942 5.80321 11.6486 
333 1 106.42 11.7452 3.98925 11.6321 
234 1 106.42 13.8005 5.80265 7.95265 
334 1 106.42 13.7397 6.15763 11.5961 
237 1 106.42 15.9637 4.463 7.84893 
238 1 106.42 18.1716 6.28417 7.87038 
239 1 106.42 17.8579 4.0294 9.698 
240 1 106.42 15.8892 5.6989 10.0858 
259 1 106.42 17.6965 7.92414 9.79477 
244 1 106.42 0.0981443 9.90613 9.73824 
263 1 106.42 2.2486 11.5012 9.55188 
345 1 106.42 4.06888 7.6124 11.8663 
361 1 106.42 -0.158422 11.7865 11.713 
265 1 106.42 4.20135 11.9238 7.79214 
248 1 106.42 4.05438 9.81124 10.0065 
267 1 106.42 5.95856 11.8758 9.82107 
346 1 106.42 6.14067 9.77399 11.6591 
252 1 106.42 7.92469 9.82066 9.68383 
251 1 106.42 9.83707 7.90365 9.81911 
250 1 106.42 10.1213 9.74203 7.80493 
353 1 106.42 11.8743 7.64981 11.5054 
255 1 106.42 13.8619 7.87976 9.85278 
253 1 106.42 11.8571 7.83108 7.96106 
256 1 106.42 11.9439 9.91786 10.0281 
275 1 106.42 13.7791 11.5783 9.96301 
277 1 106.42 15.681 11.7276 8.00781 
258 1 106.42 17.7771 9.60984 7.66009 
260 1 106.42 15.8968 9.65852 9.76836 
279 1 106.42 17.6644 11.7791 9.73327 
281 1 106.42 0.0285151 15.4917 7.94528 
283 1 106.42 2.01642 15.8146 10.0167 
264 1 106.42 0.243447 13.6216 9.90157 
362 1 106.42 2.17245 13.4564 11.8863 
381 1 106.42 0.0505071 15.4324 11.8425 
269 1 106.42 7.5399 12.0169 7.72854 
266 1 106.42 5.87237 13.952 8.12957 
268 1 106.42 4.02743 13.7523 9.89642 
271 1 106.42 9.87148 11.9273 9.79248 
272 1 106.42 7.79145 13.7233 10.1411 
276 1 106.42 11.8318 13.7928 9.76215 
291 1 106.42 9.64792 15.6635 9.91139 
273 1 106.42 12.0821 12.0397 7.74524 
274 1 106.42 13.9359 13.6925 7.81431 
374 1 106.42 13.7663 13.7505 11.6002 
280 1 106.42 15.732 13.7434 9.55135 
299 1 106.42 17.6788 15.556 9.51565 
378 1 106.42 17.5886 13.792 11.5781 
282 1 106.42 1.70076 17.6257 8.0879 
382 1 106.42 1.96046 17.9643 11.7263 
286 1 106.42 5.76066 17.4654 8.0498 
205 1 106.42 3.94331 19.3481 8.0796 
288 1 106.42 3.89298 17.5698 10.0442 
305 1 106.42 4.15597 19.5272 11.5963 
287 1 106.42 5.93465 15.7612 10.0741 
293 1 106.42 11.7426 15.7182 7.90293 
290 1 106.42 9.67307 17.4204 8.09729 
211 1 106.42 9.81235 19.4006 10.0006 
292 1 106.42 7.69216 17.6906 10.048 
296 1 106.42 11.7979 17.4827 9.98916 
294 1 106.42 13.4456 17.7874 7.68658 
295 1 106.42 13.9263 15.8698 9.98755 
297 1 106.42 15.5647 15.8193 7.61668 
300 1 106.42 15.6844 17.6555 9.60385 
394 1 106.42 13.5683 17.6424 11.9273 
284 1 106.42 19.3303 17.8014 10.0441 
298 1 106.42 17.6992 17.6262 7.81307 
398 1 106.42 17.6417 17.9522 11.5861 
323 1 106.42 2.10187 3.86215 14.2105 
304 1 106.42 0.18898 2.15427 13.7536 
308 1 106.42 3.74502 1.75762 13.7143 
327 1 106.42 5.81474 3.74775 13.5072 
312 1 106.42 7.87674 1.90885 14.0667 
405 1 106.42 3.91569 0.205655 15.7478 
429 1 106.42 7.64795 4.02475 15.6149 
310 1 106.42 9.66904 1.80431 11.9276 
316 1 106.42 11.6489 1.74156 13.6664 
331 1 106.42 9.71492 3.8399 13.4466 
410 1 106.42 9.95396 2.02953 15.592 
335 1 106.42 13.5442 3.86543 13.5493 
315 1 106.42 13.6953 -0.0904672 13.5381 
320 1 106.42 15.5847 2.12398 13.5662 
437 1 106.42 15.4131 4.00641 15.6427 
414 1 106.42 13.8164 2.02252 15.6029 
318 1 106.42 17.6184 2.15173 11.5934 
319 1 106.42 17.8232 0.239662 13.6558 
418 1 106.42 17.6761 1.81853 15.7547 
322 1 106.42 1.86886 5.72375 11.7686 
321 1 106.42 -0.0247241 3.84619 11.9262 
343 1 106.42 1.92384 7.75366 13.5386 
324 1 106.42 0.189055 5.90155 14.0504 
326 1 106.42 5.86017 5.9411 11.8032 
425 1 106.42 4.07644 3.7055 15.4865 
328 1 106.42 3.74984 5.75718 13.6988 
347 1 106.42 5.99534 7.82903 13.8561 
332 1 106.42 7.79529 5.84019 13.5026 
351 1 106.42 9.70681 7.8274 13.9926 
433 1 106.42 11.8998 4.1544 15.4545 
430 1 106.42 9.71206 5.71456 15.45 
336 1 106.42 11.7695 6.08302 13.7296 
434 1 106.42 13.797 6.00072 15.4244 
457 1 106.42 15.6271 7.923 15.5555 
338 1 106.42 17.7986 5.78615 11.7783 
340 1 106.42 15.4583 5.97489 13.6601 
339 1 106.42 17.6188 4.05275 14.0414 
359 1 106.42 17.8442 7.77083 13.9337 
365 1 106.42 3.8761 11.5019 11.6952 
342 1 106.42 1.8846 9.76763 11.756 
348 1 106.42 3.79861 9.66958 13.6838 
344 1 106.42 -0.0979229 9.72093 13.7622 
363 1 106.42 1.96615 11.7816 13.7707 
349 1 106.42 7.65843 7.75682 11.7 
367 1 106.42 5.81078 11.3274 13.6883 
352 1 106.42 7.95032 9.58598 13.8568 
350 1 106.42 10.131 9.78944 11.9112 
373 1 106.42 11.9605 11.7502 11.7568 
371 1 106.42 9.64148 11.6849 13.5971 
453 1 106.42 11.8679 7.85932 15.9697 
355 1 106.42 13.7263 7.86383 13.7809 
356 1 106.42 11.4648 9.68082 14.1062 
354 1 106.42 13.9554 9.63724 11.9201 
360 1 106.42 15.7937 9.86347 13.7475 
454 1 106.42 13.7039 9.90223 15.6356 
357 1 106.42 15.9234 7.88223 12.0393 
358 1 106.42 17.8632 9.45244 11.7841 
379 1 106.42 17.7106 11.8488 13.5519 
477 1 106.42 15.7118 11.6894 15.6925 
385 1 106.42 3.95155 15.5254 11.7343 
364 1 106.42 0.137794 13.4226 13.8016 
383 1 106.42 2.16124 15.5689 13.554 
366 1 106.42 5.83754 13.5986 11.8079 
389 1 106.42 7.84359 15.5147 11.9499 
368 1 106.42 4.04456 13.4268 13.724 
387 1 106.42 6.0377 15.6193 14.054 
372 1 106.42 7.63635 13.6432 13.5929 
369 1 106.42 8.08156 11.5236 11.7184 
370 1 106.42 9.91076 13.7474 12.0804 
391 1 106.42 9.40624 15.8906 13.9918 
470 1 106.42 9.54792 13.8645 15.5707 
375 1 106.42 13.7553 11.8482 13.6622 
376 1 106.42 11.8691 14.0569 13.8698 
395 1 106.42 13.919 15.769 13.7687 
377 1 106.42 15.6704 12.1349 11.7863 
380 1 106.42 16.0222 13.6563 13.8497 
399 1 106.42 17.8869 15.7143 13.6172 
481 1 106.42 19.6991 15.678 15.7317 
497 1 106.42 15.7385 15.8148 15.4995 
303 1 106.42 1.78099 19.7678 13.7451 
388 1 106.42 3.86926 17.6607 13.7599 
384 1 106.42 0.139621 17.5782 13.4869 
485 1 106.42 3.71121 15.922 15.7317 
386 1 106.42 5.89891 17.665 11.9417 
307 1 106.42 5.59404 19.578 13.9083 
309 1 106.42 7.88938 19.6592 11.9852 
392 1 106.42 7.59266 17.5558 13.7223 
390 1 106.42 9.63988 17.4152 11.8235 
311 1 106.42 9.77506 19.5189 13.8201 
396 1 106.42 11.7822 17.6134 13.5404 
393 1 106.42 11.9053 15.6343 11.9438 
413 1 106.42 12.0101 19.3697 15.4175 
400 1 106.42 15.6414 17.6754 13.5081 
397 1 106.42 15.7861 15.6636 11.8869 
498 1 106.42 17.7854 17.7253 15.5055 
401 1 106.42 19.6253 19.7376 15.76 
417 1 106.42 15.7985 19.6994 15.4152 
421 1 106.42 19.4082 3.71773 15.5946 
402 1 106.42 2.03249 1.86552 15.8718 
2 1 106.42 2.0054 1.91843 19.7986 
423 1 106.42 1.90288 3.63193 17.8031 
408 1 106.42 3.98881 2.01026 17.518 
403 1 106.42 1.74082 0.0506706 17.6972 
406 1 106.42 5.97421 2.06229 15.8557 
6 1 106.42 5.77523 2.02442 19.5883 
407 1 106.42 6.13024 0.0710358 17.7844 
427 1 106.42 6.0101 4.29465 17.5448 
409 1 106.42 7.89745 19.4379 15.783 
412 1 106.42 8.12324 2.04752 17.7157 
10 1 106.42 10.061 1.96326 19.5158 
411 1 106.42 10.2118 19.6279 17.5862 
416 1 106.42 11.7573 2.02957 17.3563 
420 1 106.42 15.5717 1.85099 17.8311 
415 1 106.42 13.7951 0.0696119 17.4739 
404 1 106.42 19.6841 1.90249 17.8363 
439 1 106.42 17.5055 3.82446 17.4675 
419 1 106.42 17.6838 0.109967 17.757 
45 1 106.42 4.05507 7.73512 19.7983 
21 1 106.42 -0.273405 4.21604 19.6615 
422 1 106.42 1.83286 6.05999 15.8559 
22 1 106.42 1.98537 5.76748 19.476 
424 1 106.42 0.0677978 5.4594 17.4962 
49 1 106.42 7.89875 7.94992 0.131076 
426 1 106.42 5.88342 5.99223 15.5964 
29 1 106.42 7.81623 3.89116 19.4138 
428 1 106.42 3.73327 5.65966 17.4068 
26 1 106.42 5.8461 5.85406 19.7844 
447 1 106.42 5.7328 7.53956 17.7665 
449 1 106.42 7.91987 7.7382 15.9109 
431 1 106.42 10.0318 4.08743 17.6563 
432 1 106.42 8.01153 5.938 17.8392 
30 1 106.42 9.6476 5.7584 0.19596 
53 1 106.42 11.746 7.96473 19.5937 
451 1 106.42 10.0252 7.62464 17.4622 
436 1 106.42 11.9596 5.86199 17.7303 
435 1 106.42 13.737 3.9278 17.6418 
440 1 106.42 15.6062 5.82424 17.4915 
41 1 106.42 19.5096 7.47869 19.4971 
38 1 106.42 17.5296 6.02455 19.5974 
438 1 106.42 17.5986 6.01281 15.8774 
442 1 106.42 1.98847 9.78975 15.7361 
445 1 106.42 3.90854 7.99853 15.7603 
461 1 106.42 0.0976689 11.7418 16.0072 
443 1 106.42 2.16437 7.88066 17.7125 
42 1 106.42 2.11657 9.81339 0.294067 
444 1 106.42 0.167655 9.78435 18.0151 
46 1 106.42 5.70336 9.67719 19.4935 
69 1 106.42 7.57809 11.8127 19.532 
448 1 106.42 3.79259 9.86996 17.5036 
446 1 106.42 5.97931 9.68393 15.7132 
467 1 106.42 5.78603 11.6307 17.6432 
50 1 106.42 10.0056 9.98533 19.7509 
450 1 106.42 9.74709 9.90264 15.9464 
452 1 106.42 7.77698 9.60255 17.7477 
455 1 106.42 13.709 8.01769 17.4867 
73 1 106.42 11.8177 12.1298 -0.00943552 
456 1 106.42 11.8484 10.0204 17.543 
460 1 106.42 15.5033 9.92978 17.8137 
441 1 106.42 19.3457 8.05548 15.8827 
458 1 106.42 17.5792 10.0724 15.8805 
459 1 106.42 17.2969 7.8892 17.7049 
58 1 106.42 17.8471 9.91855 0.0878962 
463 1 106.42 2.02436 11.8107 17.8316 
462 1 106.42 1.80258 13.793 15.8355 
483 1 106.42 1.9894 15.5761 17.843 
468 1 106.42 4.06172 13.7004 17.481 
465 1 106.42 3.9099 11.5995 15.6501 
464 1 106.42 19.3617 13.8834 17.8382 
85 1 106.42 4.07216 15.7581 19.7418 
66 1 106.42 5.82942 13.8758 19.2728 
466 1 106.42 5.89048 13.5717 15.9998 
489 1 106.42 7.78308 15.9806 15.9229 
469 1 106.42 7.77109 11.5933 15.6463 
473 1 106.42 11.4488 11.9426 15.4922 
471 1 106.42 9.69072 11.8365 17.9162 
472 1 106.42 8.00286 13.942 17.7513 
491 1 106.42 10.2028 15.5252 17.5834 
474 1 106.42 14.0836 13.634 15.6036 
475 1 106.42 13.6204 11.8206 17.5507 
476 1 106.42 12.0312 13.7756 17.4263 
479 1 106.42 17.5135 11.8094 17.822 
480 1 106.42 15.6122 13.7995 17.7989 
478 1 106.42 17.7477 13.7264 15.9365 
82 1 106.42 2.00268 17.4764 19.3342 
482 1 106.42 1.64682 17.8435 15.6511 
484 1 106.42 19.4796 17.6043 17.7551 
89 1 106.42 7.72534 15.8225 19.5736 
487 1 106.42 5.66703 15.8628 17.4798 
488 1 106.42 3.97882 18.2143 17.681 
86 1 106.42 5.92397 17.7846 19.609 
486 1 106.42 5.99766 17.8685 15.9639 
9 1 106.42 8.04797 19.8335 19.78 
90 1 106.42 9.90029 17.6451 19.5751 
490 1 106.42 9.93142 17.6033 15.8321 
492 1 106.42 7.97312 17.5947 17.8373 
94 1 106.42 13.9781 17.8928 19.382 
493 1 106.42 11.8137 16.1436 15.627 
93 1 106.42 11.9029 16.023 19.6454 
495 1 106.42 13.9283 15.8317 17.7909 
496 1 106.42 12.0395 17.9054 17.738 
494 1 106.42 14.0314 17.5758 15.7202 
81 1 106.42 0.0634669 15.548 19.8241 
97 1 106.42 15.7775 15.8717 19.8063 
499 1 106.42 17.5184 15.9568 17.4725 
500 1 106.42 15.9081 17.7904 17.5313 
