ITEM: TIMESTEP
34300
ITEM: NUMBER OF ATOMS
501
ITEM: BOX BOUNDS pp pp pp
0.0000000000000000e+00 1.9629018200000001e+01
0.0000000000000000e+00 1.9629018200000001e+01
0.0000000000000000e+00 1.9629018200000001e+01
ITEM: ATOMS id type mass x y z 
23 1 106.42 1.7586 4.09982 1.71449 
8 1 106.42 3.87812 1.97406 2.25116 
3 1 106.42 2.04691 -0.26418 1.72059 
12 1 106.42 7.4554 1.73639 2.01429 
129 1 106.42 7.61793 4.02994 3.95522 
5 1 106.42 3.96463 0.0662756 0.0309737 
7 1 106.42 5.77117 19.5717 2.25995 
11 1 106.42 9.82162 0.182365 1.96036 
13 1 106.42 12.1153 -0.0120001 -0.0260897 
113 1 106.42 11.9499 -0.317742 4.01985 
16 1 106.42 11.7632 2.15061 2.00501 
20 1 106.42 15.4011 1.83859 2.43161 
14 1 106.42 13.5846 2.01454 -0.117024 
137 1 106.42 15.6798 3.88502 4.15068 
4 1 106.42 19.677 2.0605 2.00611 
37 1 106.42 15.6488 3.87747 -0.0357163 
18 1 106.42 17.6287 1.90557 0.060229 
125 1 106.42 3.87724 3.93766 3.95014 
43 1 106.42 2.11798 7.57302 1.73656 
28 1 106.42 3.93051 5.79289 2.0251 
122 1 106.42 1.84308 5.86691 4.0268 
145 1 106.42 3.86766 8.03318 3.95705 
27 1 106.42 5.79398 3.71818 1.93793 
25 1 106.42 3.79032 3.71066 19.4063 
32 1 106.42 7.7573 5.83339 2.07878 
31 1 106.42 9.57561 3.66081 1.87406 
153 1 106.42 11.7909 7.49001 4.14484 
51 1 106.42 10.0213 7.70465 1.9367 
130 1 106.42 9.97959 5.62449 3.78156 
33 1 106.42 11.666 4.00576 -0.0478112 
36 1 106.42 11.7429 5.68468 1.79889 
35 1 106.42 13.7517 3.94229 1.85143 
134 1 106.42 13.8211 5.78857 3.80964 
501 2 1.01 15.7163 6.1612 19.6241 
34 1 106.42 14.0591 6.14485 0.0784742 
57 1 106.42 15.9462 8.24011 0.220071 
39 1 106.42 17.6961 3.70128 2.19748 
40 1 106.42 15.8388 5.81866 1.91571 
24 1 106.42 19.5919 5.99248 2.16377 
59 1 106.42 17.58 7.90794 2.20375 
138 1 106.42 17.5369 5.59927 4.05556 
141 1 106.42 0.123209 7.8926 3.80094 
63 1 106.42 2.05271 11.7097 2.17042 
48 1 106.42 4.00431 9.66057 1.90478 
165 1 106.42 3.96965 11.9437 4.03509 
47 1 106.42 6.13915 7.98338 1.87607 
146 1 106.42 5.53639 9.87219 3.96769 
67 1 106.42 5.8623 11.634 1.86782 
52 1 106.42 8.10028 9.66254 2.16305 
56 1 106.42 11.8319 9.57899 2.1923 
55 1 106.42 13.7198 7.94449 1.98246 
54 1 106.42 13.6862 9.69593 19.7076 
60 1 106.42 15.6121 9.79226 2.27722 
177 1 106.42 15.8479 11.7217 4.11999 
77 1 106.42 15.2896 11.7693 -0.0873352 
44 1 106.42 19.6844 9.4978 1.95101 
161 1 106.42 19.4621 11.7532 3.55852 
158 1 106.42 17.8038 9.79444 4.12681 
162 1 106.42 2.07856 13.7358 4.11262 
65 1 106.42 4.02101 11.661 0.0835643 
62 1 106.42 2.06742 13.5384 -0.0991023 
68 1 106.42 3.99774 13.6934 1.73103 
166 1 106.42 6.01878 13.6567 3.84207 
72 1 106.42 7.70203 13.8243 1.94275 
169 1 106.42 8.16719 11.6661 3.99631 
71 1 106.42 9.96697 11.8616 2.02724 
173 1 106.42 11.8642 11.9535 4.03794 
170 1 106.42 9.74393 13.8067 3.8273 
70 1 106.42 9.61313 13.5686 -0.112626 
75 1 106.42 13.7189 11.536 1.87421 
76 1 106.42 11.6431 13.9448 1.97548 
74 1 106.42 13.7518 13.7859 -0.0577524 
174 1 106.42 13.7291 13.5302 3.53473 
64 1 106.42 19.7109 13.6292 2.03983 
79 1 106.42 17.5368 11.7159 1.82351 
80 1 106.42 15.6516 13.9271 1.8414 
78 1 106.42 17.6489 13.8343 0.0551329 
61 1 106.42 19.7101 11.8566 -0.0929437 
101 1 106.42 0.00334193 19.8912 3.76188 
83 1 106.42 2.10636 15.6798 2.03923 
182 1 106.42 1.97589 17.6768 3.8442 
1 1 106.42 -0.023809 19.6448 -0.112485 
87 1 106.42 5.97715 15.7521 2.22339 
88 1 106.42 4.00029 17.6086 1.78154 
186 1 106.42 5.90864 17.5797 4.39389 
91 1 106.42 9.87151 15.6632 1.81145 
92 1 106.42 7.68654 17.8747 1.63649 
189 1 106.42 7.77684 15.8476 3.64972 
190 1 106.42 9.65549 17.7413 3.50287 
193 1 106.42 11.7666 15.8224 3.90599 
15 1 106.42 13.6173 19.7069 2.13246 
95 1 106.42 13.7913 15.8264 1.87967 
96 1 106.42 11.8496 17.8362 1.88325 
19 1 106.42 17.5816 0.138087 1.95415 
84 1 106.42 19.8401 17.577 2.00134 
100 1 106.42 15.632 17.6891 1.78428 
17 1 106.42 15.708 0.213124 -0.038725 
99 1 106.42 17.8756 15.7969 1.92636 
98 1 106.42 17.526 17.6093 -0.141538 
102 1 106.42 2.0339 2.12156 3.73707 
121 1 106.42 19.4748 3.90708 4.17811 
108 1 106.42 3.79355 1.79703 6.13847 
104 1 106.42 0.162915 1.89631 5.67057 
123 1 106.42 2.09163 3.87031 5.7552 
106 1 106.42 5.95433 1.99573 3.8661 
112 1 106.42 8.10714 1.76934 5.89797 
127 1 106.42 5.70207 4.13559 5.62579 
225 1 106.42 3.85659 4.05304 7.67482 
110 1 106.42 9.74995 2.10234 3.80114 
131 1 106.42 9.7872 3.9496 5.74097 
116 1 106.42 11.509 1.86421 5.73358 
233 1 106.42 11.678 3.5599 7.94419 
114 1 106.42 13.3035 2.10267 4.07388 
115 1 106.42 13.6655 0.00954336 5.94542 
117 1 106.42 15.469 -0.104522 3.97144 
118 1 106.42 17.7162 1.73499 4.0011 
120 1 106.42 15.6739 2.02806 5.95072 
139 1 106.42 17.5873 3.91423 6.0932 
218 1 106.42 17.8625 2.09322 7.78692 
217 1 106.42 15.6991 -0.144936 7.6322 
124 1 106.42 0.289961 5.89549 6.03003 
221 1 106.42 0.0481315 4.02839 7.72573 
222 1 106.42 2.07734 5.9154 7.70974 
241 1 106.42 0.123245 8.05474 7.90785 
245 1 106.42 4.16057 7.83013 7.77875 
128 1 106.42 4.05321 6.10229 5.61204 
126 1 106.42 5.97968 6.22725 3.77604 
133 1 106.42 11.7171 3.98481 3.86668 
132 1 106.42 7.8065 5.84197 5.88991 
136 1 106.42 11.9349 5.58224 6.07103 
229 1 106.42 7.68688 3.7351 7.90379 
249 1 106.42 7.86519 8.05838 7.57999 
157 1 106.42 15.6686 7.839 3.99855 
135 1 106.42 13.7953 3.84684 6.24667 
140 1 106.42 15.7352 5.85289 5.6883 
155 1 106.42 13.508 7.81488 5.81043 
257 1 106.42 15.9478 7.72238 7.88116 
159 1 106.42 17.8306 7.5867 5.47338 
142 1 106.42 1.98931 9.80666 3.86484 
143 1 106.42 2.07181 7.82896 5.73217 
242 1 106.42 2.01023 9.56765 7.79692 
144 1 106.42 0.00291964 9.91816 5.94749 
149 1 106.42 8.09195 8.04961 4.0036 
148 1 106.42 3.59719 10.1317 6.08621 
147 1 106.42 5.98575 8.00658 6.04212 
246 1 106.42 5.97108 9.79819 7.98607 
167 1 106.42 6.21827 11.7027 5.78185 
152 1 106.42 7.97326 9.74614 5.95109 
151 1 106.42 10.2092 7.97159 5.78833 
150 1 106.42 9.90295 9.92735 4.01547 
156 1 106.42 11.8809 10.0206 5.733 
154 1 106.42 13.6411 9.9779 3.83366 
160 1 106.42 15.7948 9.41583 5.85975 
254 1 106.42 13.7097 9.716 7.70812 
179 1 106.42 17.5081 11.5386 6.03434 
261 1 106.42 19.5813 11.9113 7.98255 
163 1 106.42 1.45669 11.801 5.71547 
262 1 106.42 2.13328 13.7467 8.09568 
181 1 106.42 19.5753 15.7388 3.92348 
164 1 106.42 -0.0531615 13.8592 5.8968 
183 1 106.42 2.15564 15.9559 5.70311 
168 1 106.42 4.00567 13.7067 6.03035 
187 1 106.42 5.60183 15.7145 5.80692 
171 1 106.42 9.80025 11.9334 6.1543 
172 1 106.42 7.82241 13.9821 5.69647 
270 1 106.42 9.61956 13.8844 8.12748 
176 1 106.42 11.5111 13.7559 5.89061 
175 1 106.42 14.0208 12.0516 5.67142 
195 1 106.42 13.566 15.5714 5.82191 
180 1 106.42 15.7606 13.7543 5.79333 
178 1 106.42 17.7805 13.7431 4.0035 
199 1 106.42 17.621 15.8147 5.8888 
278 1 106.42 17.4992 13.5897 7.55987 
103 1 106.42 1.80835 19.3791 5.7661 
105 1 106.42 3.86799 19.5596 4.06954 
285 1 106.42 3.68423 15.7502 8.1411 
185 1 106.42 4.1444 15.6039 3.7676 
184 1 106.42 19.6174 17.3917 5.75928 
107 1 106.42 5.82044 19.7461 6.11644 
188 1 106.42 3.87682 17.571 5.93028 
192 1 106.42 7.84372 17.8192 5.82899 
209 1 106.42 7.79275 19.612 8.15559 
109 1 106.42 7.67558 19.6994 3.74349 
111 1 106.42 9.88178 19.3746 6.20557 
289 1 106.42 7.65169 15.5283 8.02076 
191 1 106.42 9.7557 15.7782 5.69446 
194 1 106.42 13.6419 17.589 3.95492 
196 1 106.42 11.6079 17.6829 5.96518 
197 1 106.42 15.6776 15.6056 3.92624 
198 1 106.42 17.5215 17.7351 3.59087 
119 1 106.42 17.9003 19.5175 5.54724 
200 1 106.42 15.5656 17.6317 5.76131 
202 1 106.42 1.79176 1.81452 7.71986 
302 1 106.42 2.18448 2.24945 11.7983 
208 1 106.42 3.94551 2.09969 9.61011 
223 1 106.42 1.86414 3.74692 9.71087 
203 1 106.42 1.94313 0.00517292 9.7968 
301 1 106.42 0.00283477 0.276824 11.6427 
206 1 106.42 5.78484 1.94871 7.66691 
207 1 106.42 5.84239 0.17314 9.79613 
325 1 106.42 3.84943 4.11723 11.6665 
306 1 106.42 5.6766 1.89185 11.8716 
213 1 106.42 11.7586 0.0366783 8.09358 
210 1 106.42 9.82497 1.82045 7.85726 
212 1 106.42 7.80625 1.96143 10.0004 
216 1 106.42 11.27 2.01512 9.86054 
313 1 106.42 11.8127 19.3849 11.7182 
214 1 106.42 13.8075 2.30422 8.02208 
215 1 106.42 13.7278 0.0207526 9.70674 
235 1 106.42 13.6755 4.07155 9.94866 
314 1 106.42 13.3744 1.90366 11.655 
201 1 106.42 19.4499 -0.0029708 7.6408 
204 1 106.42 -0.180948 2.06971 9.66253 
337 1 106.42 15.4787 3.88785 11.887 
220 1 106.42 15.8583 2.10494 9.45403 
219 1 106.42 17.4865 0.138962 9.79305 
317 1 106.42 15.4637 0.383019 11.5249 
228 1 106.42 3.69512 5.74353 9.85237 
341 1 106.42 -0.120886 7.60011 11.8314 
224 1 106.42 0.0592847 5.82594 9.93241 
243 1 106.42 2.19421 8.07534 10.0438 
227 1 106.42 5.88106 3.74802 9.82015 
329 1 106.42 7.72524 3.63098 11.8595 
226 1 106.42 6.15659 5.83937 7.79847 
232 1 106.42 7.86992 6.13093 9.89001 
247 1 106.42 5.91418 7.96878 9.91993 
230 1 106.42 9.83507 5.80469 7.58824 
231 1 106.42 9.68627 4.14682 9.79452 
236 1 106.42 11.6292 5.81015 9.47126 
330 1 106.42 9.81132 5.69919 11.6671 
333 1 106.42 11.6023 3.92779 11.6832 
234 1 106.42 13.8178 5.84923 7.89186 
334 1 106.42 13.8098 6.04436 11.6511 
237 1 106.42 15.8164 4.30148 7.97336 
238 1 106.42 18.1256 6.14645 7.84517 
239 1 106.42 17.9611 4.06673 9.67709 
240 1 106.42 15.8592 5.67266 9.99525 
259 1 106.42 17.7429 8.02008 9.53802 
244 1 106.42 -0.0396595 9.94687 9.81461 
263 1 106.42 2.09252 11.5631 9.44432 
345 1 106.42 4.15244 7.52836 11.8475 
361 1 106.42 -0.171623 11.9042 11.7616 
265 1 106.42 4.14366 12.049 7.75002 
248 1 106.42 4.06996 9.70178 10.0352 
267 1 106.42 5.89535 11.8112 9.74422 
346 1 106.42 6.28475 9.85944 11.7304 
252 1 106.42 8.08919 9.68668 9.50304 
251 1 106.42 9.876 7.94749 9.81759 
250 1 106.42 10.0988 9.78901 7.70112 
353 1 106.42 11.9366 7.52911 11.5194 
255 1 106.42 13.9556 7.92932 9.79252 
253 1 106.42 11.8532 7.85404 8.04172 
256 1 106.42 11.9084 9.84955 9.97665 
275 1 106.42 13.9142 11.7876 9.98873 
277 1 106.42 15.7033 11.7883 7.86902 
258 1 106.42 17.7537 9.65999 7.62438 
260 1 106.42 15.9008 9.72371 9.71115 
279 1 106.42 17.6479 11.7349 9.76239 
281 1 106.42 0.0518142 15.4167 7.91904 
283 1 106.42 1.91288 15.8038 10.1203 
264 1 106.42 0.230896 13.598 9.98746 
362 1 106.42 1.994 13.4185 11.9168 
381 1 106.42 -0.0122311 15.4058 11.8145 
269 1 106.42 7.70376 12.034 7.81794 
266 1 106.42 5.74977 13.935 7.94892 
268 1 106.42 3.89988 13.7999 9.97858 
271 1 106.42 9.98175 11.78 9.68428 
272 1 106.42 7.85069 13.7363 9.94672 
276 1 106.42 11.9431 13.8388 9.7326 
291 1 106.42 9.61273 15.7451 10.0178 
273 1 106.42 12.0785 11.9718 7.77339 
274 1 106.42 13.8763 13.725 7.74915 
374 1 106.42 13.8548 13.7414 11.6777 
280 1 106.42 15.7589 13.8812 9.61196 
299 1 106.42 17.6899 15.6308 9.58838 
378 1 106.42 17.7557 13.8373 11.5397 
282 1 106.42 1.72272 17.4999 8.04692 
382 1 106.42 2.06405 17.7474 11.7696 
286 1 106.42 5.82153 17.496 8.01173 
205 1 106.42 3.81249 19.3433 8.12232 
288 1 106.42 3.85871 17.646 10.0228 
305 1 106.42 3.93169 19.6725 11.7084 
287 1 106.42 5.86274 15.6725 9.96922 
293 1 106.42 11.8611 15.5215 7.75967 
290 1 106.42 9.6803 17.4158 8.11751 
211 1 106.42 9.82369 19.3703 10.0812 
292 1 106.42 7.60683 17.5464 9.99301 
296 1 106.42 11.887 17.3824 9.87466 
294 1 106.42 13.4144 17.751 7.73229 
295 1 106.42 13.9619 15.7702 10.1975 
297 1 106.42 15.5411 15.7057 7.65147 
300 1 106.42 15.6961 17.5757 9.56864 
394 1 106.42 13.5444 17.5925 11.7576 
284 1 106.42 19.4483 17.6762 10.0274 
298 1 106.42 17.6253 17.7158 7.84305 
398 1 106.42 17.6015 17.8762 11.8112 
323 1 106.42 1.93298 4.02136 14.1906 
304 1 106.42 0.0694511 2.10679 13.8176 
308 1 106.42 3.69923 1.74484 13.7907 
327 1 106.42 5.87555 3.82833 13.5968 
312 1 106.42 7.88149 2.06861 14.1338 
405 1 106.42 3.85647 0.0590341 15.8586 
429 1 106.42 7.78267 4.07405 15.764 
310 1 106.42 9.73598 1.91139 11.8146 
316 1 106.42 11.7515 1.82958 13.8466 
331 1 106.42 9.75269 3.98689 13.5046 
410 1 106.42 10.0157 1.95495 15.6889 
335 1 106.42 13.5646 4.00667 13.5768 
315 1 106.42 13.6517 -0.0445381 13.5669 
320 1 106.42 15.681 2.00567 13.5937 
437 1 106.42 15.4342 4.196 15.6188 
414 1 106.42 13.801 1.92447 15.6143 
318 1 106.42 17.4006 2.1937 11.544 
319 1 106.42 17.9089 0.228219 13.6287 
418 1 106.42 17.7816 1.89092 15.8894 
322 1 106.42 1.93457 5.64371 11.8001 
321 1 106.42 -0.12791 3.71704 11.9578 
343 1 106.42 1.86157 7.82473 13.6454 
324 1 106.42 0.0616589 6.09326 13.9019 
326 1 106.42 5.82112 5.73436 11.5942 
425 1 106.42 4.1543 3.62231 15.7031 
328 1 106.42 3.70379 5.76695 13.6543 
347 1 106.42 5.97962 7.93654 13.7328 
332 1 106.42 7.77495 5.91382 13.4835 
351 1 106.42 9.78825 7.79666 13.937 
433 1 106.42 11.871 4.01278 15.4568 
430 1 106.42 9.60663 5.53554 15.5018 
336 1 106.42 11.7094 5.99581 13.8183 
434 1 106.42 13.8915 6.1494 15.6172 
457 1 106.42 15.7477 8.15607 15.5763 
338 1 106.42 17.8624 5.79971 11.7916 
340 1 106.42 15.5105 5.95434 13.516 
339 1 106.42 17.5403 4.10273 13.8678 
359 1 106.42 17.8148 7.71945 13.7799 
365 1 106.42 3.98094 11.5269 11.7716 
342 1 106.42 1.88112 9.95218 11.7981 
348 1 106.42 3.90573 9.61173 13.7063 
344 1 106.42 -0.144693 9.67923 13.7773 
363 1 106.42 1.92451 11.7939 13.6696 
349 1 106.42 7.8461 7.6761 11.6384 
367 1 106.42 5.81065 11.4044 13.6959 
352 1 106.42 7.93834 9.51863 13.835 
350 1 106.42 9.93088 9.92223 11.7957 
373 1 106.42 12.0551 11.8399 11.7766 
371 1 106.42 9.56883 11.662 13.7281 
453 1 106.42 12.025 7.81077 16.002 
355 1 106.42 13.8308 7.88867 13.664 
356 1 106.42 11.4097 9.71714 14.0555 
354 1 106.42 13.9525 9.68771 11.9029 
360 1 106.42 15.9279 9.90623 13.7175 
454 1 106.42 13.6249 9.95681 15.5549 
357 1 106.42 15.9213 7.8408 12.0274 
358 1 106.42 17.8365 9.48813 11.7991 
379 1 106.42 17.5722 11.7663 13.5972 
477 1 106.42 15.7125 11.818 15.7593 
385 1 106.42 4.0652 15.5339 11.9026 
364 1 106.42 -0.0577781 13.4748 13.9225 
383 1 106.42 2.19596 15.7539 13.5753 
366 1 106.42 5.9091 13.5599 11.881 
389 1 106.42 7.82047 15.6009 11.872 
368 1 106.42 4.01521 13.4934 13.9023 
387 1 106.42 6.00729 15.6762 14.0095 
372 1 106.42 7.75473 13.6473 13.7175 
369 1 106.42 7.99486 11.3148 11.651 
370 1 106.42 9.89584 13.8426 11.962 
391 1 106.42 9.59124 15.9681 13.8942 
470 1 106.42 9.44626 13.9323 15.5627 
375 1 106.42 13.8659 11.6079 13.587 
376 1 106.42 11.8265 13.93 13.9925 
395 1 106.42 13.8927 15.8249 13.5948 
377 1 106.42 15.6729 12.0443 11.7278 
380 1 106.42 16.1111 13.8333 13.7147 
399 1 106.42 17.7427 15.6802 13.7579 
481 1 106.42 19.8118 15.7721 15.7743 
497 1 106.42 15.7331 15.7672 15.5018 
303 1 106.42 1.82064 19.7554 13.7328 
388 1 106.42 3.81565 17.7267 13.7497 
384 1 106.42 0.167993 17.6778 13.4677 
485 1 106.42 3.83909 15.9699 15.755 
386 1 106.42 5.70682 17.7051 11.8679 
307 1 106.42 5.67257 19.771 13.9336 
309 1 106.42 7.96958 19.6676 12.0035 
392 1 106.42 7.61528 17.6268 13.5481 
390 1 106.42 9.72296 17.4118 11.8348 
311 1 106.42 9.89946 19.3737 13.851 
396 1 106.42 11.6685 17.4726 13.6415 
393 1 106.42 11.8244 15.5278 11.8259 
413 1 106.42 12.0255 19.4324 15.5584 
400 1 106.42 15.6486 17.8873 13.2576 
397 1 106.42 15.8416 15.6029 11.8186 
498 1 106.42 17.7304 17.8154 15.4503 
401 1 106.42 19.6149 19.833 15.8182 
417 1 106.42 15.758 19.8595 15.5138 
421 1 106.42 19.4115 3.86794 15.7473 
402 1 106.42 2.16206 1.95771 15.7937 
2 1 106.42 2.02357 1.88506 19.9188 
423 1 106.42 1.82551 3.64609 17.7502 
408 1 106.42 4.06218 1.98954 17.5825 
403 1 106.42 1.75998 -0.0481605 17.6623 
406 1 106.42 5.97454 2.00073 15.7756 
6 1 106.42 5.87969 2.06539 19.6881 
407 1 106.42 6.28229 0.223883 17.813 
427 1 106.42 5.92186 4.32588 17.6143 
409 1 106.42 8.01703 19.4633 15.8157 
412 1 106.42 7.97061 1.86991 17.6937 
10 1 106.42 9.89437 1.82063 19.6146 
411 1 106.42 10.0827 19.6771 17.5888 
416 1 106.42 11.7354 1.98323 17.4048 
420 1 106.42 15.6975 1.88924 17.7939 
415 1 106.42 13.958 0.0881286 17.5621 
404 1 106.42 19.6029 2.03096 17.8424 
439 1 106.42 17.4628 4.05005 17.4656 
419 1 106.42 17.6708 0.0690399 17.7712 
45 1 106.42 4.11835 7.64182 19.7793 
21 1 106.42 -0.416991 3.93937 19.7093 
422 1 106.42 1.75945 6.05489 15.8327 
22 1 106.42 2.01318 5.75744 19.5404 
424 1 106.42 0.0605993 5.46788 17.7214 
49 1 106.42 7.98036 8.01977 0.143984 
426 1 106.42 5.75164 5.91204 15.4422 
29 1 106.42 8.05571 3.73553 19.5268 
428 1 106.42 3.55942 5.78036 17.487 
26 1 106.42 6.00709 5.79516 19.8602 
447 1 106.42 5.68063 7.64665 17.6922 
449 1 106.42 7.89506 7.75045 15.8498 
431 1 106.42 9.86324 3.83096 17.5809 
432 1 106.42 8.07184 5.96517 17.8957 
30 1 106.42 9.77657 5.6167 0.287525 
53 1 106.42 11.7021 7.98553 19.7446 
451 1 106.42 10.0377 7.61242 17.5922 
436 1 106.42 11.923 5.70692 17.8272 
435 1 106.42 13.7239 3.91437 17.6054 
440 1 106.42 15.5169 5.90866 17.4323 
41 1 106.42 19.5593 7.55332 19.5606 
38 1 106.42 17.5549 6.05178 19.6882 
438 1 106.42 17.553 6.04836 15.7077 
442 1 106.42 1.92071 9.73027 15.5342 
445 1 106.42 3.93969 7.90593 15.6482 
461 1 106.42 0.0891008 11.7482 15.9426 
443 1 106.42 2.00056 7.82572 17.7489 
42 1 106.42 2.11161 9.70026 0.20933 
444 1 106.42 0.160856 9.73293 18.0149 
46 1 106.42 5.88835 9.70133 19.6707 
69 1 106.42 7.68108 12.0141 19.6673 
448 1 106.42 3.73955 9.84904 17.5695 
446 1 106.42 5.83995 9.63937 15.8083 
467 1 106.42 5.75323 11.5724 17.725 
50 1 106.42 9.99502 9.98477 19.8014 
450 1 106.42 9.70215 9.82101 16.0638 
452 1 106.42 7.75438 9.56556 17.7754 
455 1 106.42 13.897 7.95845 17.5521 
73 1 106.42 11.6583 12.2601 -0.147736 
456 1 106.42 11.737 10.0407 17.5967 
460 1 106.42 15.5601 9.96158 17.7743 
441 1 106.42 19.4111 8.06472 15.87 
458 1 106.42 17.5998 10.0733 15.8272 
459 1 106.42 17.3556 7.99462 17.7862 
58 1 106.42 17.7606 9.95023 0.0373357 
463 1 106.42 2.05385 11.7337 17.6847 
462 1 106.42 1.83555 13.7942 15.8072 
483 1 106.42 1.80893 15.6193 17.6923 
468 1 106.42 4.051 13.7245 17.4775 
465 1 106.42 4.15941 11.6105 15.5839 
464 1 106.42 19.3325 13.8915 17.71 
85 1 106.42 4.02052 15.7565 19.651 
66 1 106.42 5.92087 13.946 19.3608 
466 1 106.42 6.0277 13.6545 15.8725 
489 1 106.42 7.83062 15.9914 15.9198 
469 1 106.42 7.58486 11.6678 15.5716 
473 1 106.42 11.39 12.0558 15.4013 
471 1 106.42 9.62772 11.7564 17.8632 
472 1 106.42 7.91244 13.9173 17.6035 
491 1 106.42 10.2102 15.6679 17.6151 
474 1 106.42 13.9595 13.6538 15.5292 
475 1 106.42 13.6084 11.8105 17.6045 
476 1 106.42 11.9852 13.7919 17.366 
479 1 106.42 17.7276 11.7848 17.8336 
480 1 106.42 15.565 13.8998 17.7559 
478 1 106.42 17.5652 13.872 15.7828 
82 1 106.42 2.00347 17.6042 19.3678 
482 1 106.42 1.69489 17.7686 15.574 
484 1 106.42 19.4721 17.7009 17.8378 
89 1 106.42 7.80349 15.6247 19.6218 
487 1 106.42 5.6584 15.7271 17.5538 
488 1 106.42 3.86473 17.9654 17.5319 
86 1 106.42 5.70147 17.84 19.6104 
486 1 106.42 5.89251 17.8319 15.8667 
9 1 106.42 8.06773 19.9836 19.7736 
90 1 106.42 9.90284 17.7287 19.6026 
490 1 106.42 9.76076 17.5609 15.8433 
492 1 106.42 7.90048 17.7004 17.8634 
94 1 106.42 13.9937 17.9386 19.4818 
493 1 106.42 11.8688 16.0178 15.5473 
93 1 106.42 11.7956 15.9051 19.6187 
495 1 106.42 13.9206 15.7964 17.7391 
496 1 106.42 11.967 17.8699 17.7549 
494 1 106.42 13.987 17.689 15.5772 
81 1 106.42 0.0831582 15.4569 19.9242 
97 1 106.42 15.6416 15.762 19.7723 
499 1 106.42 17.5204 15.7883 17.5075 
500 1 106.42 15.8434 17.7591 17.5585 
