ITEM: TIMESTEP
35200
ITEM: NUMBER OF ATOMS
501
ITEM: BOX BOUNDS pp pp pp
0.0000000000000000e+00 1.9629018200000001e+01
0.0000000000000000e+00 1.9629018200000001e+01
0.0000000000000000e+00 1.9629018200000001e+01
ITEM: ATOMS id type mass x y z 
4 1 106.42 0.0830644 2.00891 1.93324 
101 1 106.42 0.207179 -0.0330797 3.68004 
102 1 106.42 2.02232 2.07536 3.74992 
2 1 106.42 1.9871 1.81179 0.135426 
8 1 106.42 4.22498 2.04526 1.78531 
12 1 106.42 7.88433 1.94208 2.0611 
27 1 106.42 5.97908 4.11536 2.09915 
106 1 106.42 5.86277 1.95372 4.19222 
109 1 106.42 7.88438 -0.1411 4.04108 
6 1 106.42 5.98634 2.06735 0.00605608 
11 1 106.42 10.0016 -0.0360326 1.98523 
31 1 106.42 9.67588 3.66239 2.01597 
110 1 106.42 9.75924 1.83414 3.90511 
10 1 106.42 10.1135 1.76488 -0.0281831 
9 1 106.42 7.78805 0.0589316 -0.0616043 
16 1 106.42 11.7727 2.09015 1.71784 
20 1 106.42 15.5094 2.0687 2.30111 
35 1 106.42 13.6765 3.91269 2.00296 
15 1 106.42 13.6025 0.17291 1.9671 
17 1 106.42 15.5746 0.192123 0.281506 
18 1 106.42 17.2777 1.89397 -0.00137883 
39 1 106.42 17.3586 3.67389 2.10761 
19 1 106.42 17.9085 -0.0202281 1.892 
21 1 106.42 19.1891 3.67436 0.163189 
23 1 106.42 1.95404 4.02379 1.77464 
43 1 106.42 2.29184 7.76025 2.11724 
141 1 106.42 0.0802174 7.69756 4.02661 
28 1 106.42 4.03894 5.72065 2.16634 
126 1 106.42 5.97324 6.2177 3.85174 
45 1 106.42 4.13989 7.55499 -0.101745 
26 1 106.42 6.24813 5.71073 0.172199 
32 1 106.42 8.21566 5.83204 1.9552 
51 1 106.42 9.83708 7.7998 2.33023 
130 1 106.42 9.95689 5.6698 3.75393 
30 1 106.42 9.89426 5.78824 0.0438229 
36 1 106.42 11.9974 6.00111 1.86018 
134 1 106.42 13.8406 5.86013 4.03565 
55 1 106.42 13.9288 7.5241 1.90701 
40 1 106.42 15.7657 5.7537 2.11664 
24 1 106.42 19.4489 5.65423 2.02699 
38 1 106.42 17.5282 5.93975 0.104126 
44 1 106.42 0.15849 9.69656 1.9893 
142 1 106.42 2.06253 9.7556 3.72015 
42 1 106.42 2.02043 9.64642 0.00823853 
48 1 106.42 4.04854 10.0614 1.97116 
47 1 106.42 6.02893 7.90003 1.97897 
67 1 106.42 6.08401 11.77 2.1661 
46 1 106.42 6.29857 9.78123 0.18416 
52 1 106.42 8.04536 9.90953 2.14176 
49 1 106.42 8.31558 7.8489 0.09288 
53 1 106.42 11.7656 7.79797 -0.0629494 
50 1 106.42 9.85229 9.98439 0.175607 
56 1 106.42 11.8147 9.55254 2.0112 
54 1 106.42 13.5397 9.92844 0.0557267 
60 1 106.42 15.7668 10.016 2.18734 
75 1 106.42 13.5867 11.7525 2.02297 
154 1 106.42 13.7148 9.68919 4.01512 
57 1 106.42 15.7626 8.32972 0.239762 
59 1 106.42 17.7783 7.92916 2.10118 
161 1 106.42 19.7086 11.6102 3.90608 
79 1 106.42 17.7081 11.789 1.95469 
58 1 106.42 17.7437 10.0609 0.0204398 
63 1 106.42 2.18111 11.9577 2.09993 
64 1 106.42 0.287971 13.541 1.84582 
83 1 106.42 2.0653 15.5386 2.13336 
81 1 106.42 0.256379 15.4506 0.0192093 
68 1 106.42 4.14097 13.4583 1.74681 
166 1 106.42 6.24751 13.6991 3.92614 
185 1 106.42 4.04972 15.2511 3.76127 
69 1 106.42 7.92276 11.8722 0.233502 
72 1 106.42 8.2006 13.8507 1.90766 
71 1 106.42 10.1473 11.8394 2.15649 
170 1 106.42 9.73956 13.8952 3.87551 
76 1 106.42 11.7854 13.7417 1.84609 
91 1 106.42 9.93908 15.8597 1.87443 
89 1 106.42 8.03805 15.6841 -0.0616261 
174 1 106.42 13.6766 13.8358 3.77345 
80 1 106.42 15.7061 13.5418 1.7835 
97 1 106.42 15.6242 15.6325 -0.251188 
78 1 106.42 17.5985 13.6443 -0.0321764 
181 1 106.42 19.6965 15.6447 3.59571 
197 1 106.42 15.7756 15.6195 3.59734 
3 1 106.42 2.03537 19.4394 2.00403 
84 1 106.42 -0.059787 17.5707 1.60343 
7 1 106.42 5.69114 19.3991 1.78198 
87 1 106.42 5.81905 15.754 1.63872 
88 1 106.42 3.82156 17.4974 2.25336 
92 1 106.42 7.68247 17.6569 1.60917 
189 1 106.42 7.85936 15.8909 4.04934 
190 1 106.42 9.55225 17.6491 3.69828 
193 1 106.42 11.8887 15.6349 3.80597 
95 1 106.42 13.6522 15.7066 1.81112 
96 1 106.42 11.7521 17.7205 1.85319 
100 1 106.42 15.601 18.0321 2.02058 
194 1 106.42 13.5886 17.5957 3.76338 
99 1 106.42 17.5606 15.7122 1.92992 
198 1 106.42 17.6273 17.7093 3.79292 
125 1 106.42 3.98734 3.89642 3.99095 
108 1 106.42 3.86709 1.96582 5.91229 
104 1 106.42 -0.132309 1.952 5.87529 
202 1 106.42 1.87329 1.93295 7.71682 
229 1 106.42 7.7981 3.76307 7.7327 
107 1 106.42 6.03928 0.0246232 5.87213 
206 1 106.42 5.83355 1.96541 7.75852 
112 1 106.42 7.91089 2.02561 5.94692 
116 1 106.42 11.5717 1.91022 5.95189 
137 1 106.42 15.4137 3.74595 4.29544 
114 1 106.42 13.4088 1.66527 3.92462 
115 1 106.42 13.5078 0.0499256 6.10798 
135 1 106.42 13.815 3.89147 6.05897 
118 1 106.42 17.4565 1.98435 4.00672 
120 1 106.42 15.7961 1.77136 6.06771 
139 1 106.42 17.7909 3.97 5.86238 
218 1 106.42 17.7227 1.76401 7.61827 
122 1 106.42 1.98701 5.85582 3.85173 
123 1 106.42 1.98664 4.00379 5.84611 
225 1 106.42 4.04076 4.15384 7.69555 
124 1 106.42 0.0122073 5.9395 5.91076 
221 1 106.42 0.263497 3.82658 7.836 
222 1 106.42 2.05593 6.04764 7.99789 
128 1 106.42 3.77574 6.05866 5.77875 
143 1 106.42 1.79711 7.9968 5.96498 
129 1 106.42 7.8597 3.93066 3.98813 
127 1 106.42 5.83544 3.9262 5.92488 
245 1 106.42 3.86886 7.83171 7.89771 
132 1 106.42 7.62841 6.04143 5.82681 
226 1 106.42 5.80845 5.97003 7.88781 
153 1 106.42 11.9076 7.6124 3.92663 
131 1 106.42 9.73311 4.01653 5.77436 
230 1 106.42 9.58556 5.64259 7.76751 
133 1 106.42 12.0257 3.84758 4.03451 
136 1 106.42 11.9528 5.74484 5.87814 
138 1 106.42 17.5572 5.79701 3.96416 
121 1 106.42 19.6782 3.96432 3.94952 
140 1 106.42 15.6409 6.24533 6.23623 
159 1 106.42 17.8535 7.81681 6.19709 
238 1 106.42 17.5886 5.6275 7.71376 
242 1 106.42 2.03449 9.82123 7.97014 
144 1 106.42 0.114467 9.92141 5.94095 
148 1 106.42 3.76496 10.1386 5.87777 
145 1 106.42 4.02298 8.12435 4.00978 
146 1 106.42 6.10093 9.8164 4.04082 
147 1 106.42 5.69444 7.94957 5.84303 
167 1 106.42 6.12239 11.7858 5.68207 
169 1 106.42 8.05137 11.8548 3.87347 
249 1 106.42 8.01218 7.60036 8.02626 
149 1 106.42 8.08517 7.75609 4.07981 
152 1 106.42 7.9783 9.84869 5.91468 
151 1 106.42 9.80389 7.66876 5.92176 
150 1 106.42 10.2286 9.89743 4.01299 
250 1 106.42 10.057 9.8708 7.60959 
157 1 106.42 15.6844 7.96759 3.85225 
155 1 106.42 13.9122 7.89897 5.90337 
156 1 106.42 12.0479 9.72928 5.96814 
254 1 106.42 13.7989 9.74111 7.85193 
277 1 106.42 15.5244 11.6615 7.66366 
177 1 106.42 15.9833 11.9079 3.72895 
158 1 106.42 17.8506 9.84484 4.10762 
160 1 106.42 15.6559 9.87429 5.94408 
179 1 106.42 17.7001 12.0176 5.97915 
258 1 106.42 17.6378 9.9541 7.77009 
162 1 106.42 1.84126 13.9022 4.02272 
163 1 106.42 1.85849 11.9253 5.88293 
168 1 106.42 3.40519 13.8111 5.96173 
165 1 106.42 3.97777 11.8892 4.03406 
172 1 106.42 7.80161 14.0437 6.00937 
265 1 106.42 3.9058 11.7757 7.90644 
266 1 106.42 5.73372 13.7231 7.50986 
171 1 106.42 9.73162 11.8315 5.97104 
176 1 106.42 11.5552 13.704 5.86666 
191 1 106.42 9.79062 15.5945 5.88843 
173 1 106.42 11.7656 11.8309 4.16707 
175 1 106.42 13.7101 11.7359 5.85084 
195 1 106.42 13.7371 15.5489 5.76785 
273 1 106.42 11.9598 11.6064 7.89036 
274 1 106.42 13.769 13.7036 7.76751 
293 1 106.42 11.7937 15.4957 7.80706 
297 1 106.42 15.6049 15.7331 7.76017 
164 1 106.42 19.6157 13.8639 5.80729 
180 1 106.42 15.7066 13.7936 5.61275 
178 1 106.42 17.7715 13.8832 3.92717 
278 1 106.42 17.561 13.9675 7.92812 
182 1 106.42 1.83908 17.7138 3.95793 
183 1 106.42 1.75426 15.7468 5.80806 
103 1 106.42 2.07287 19.8033 5.83925 
105 1 106.42 3.85374 19.6606 3.78117 
188 1 106.42 3.63362 17.7073 6.28746 
186 1 106.42 5.56891 17.9234 4.09162 
187 1 106.42 5.65234 15.7848 6.02639 
192 1 106.42 7.99951 17.7554 5.97686 
111 1 106.42 9.74963 19.6205 6.08905 
196 1 106.42 11.4083 17.3968 5.83159 
113 1 106.42 11.3982 19.5798 4.11898 
117 1 106.42 15.5235 19.4943 4.1001 
200 1 106.42 15.6147 17.4214 5.66622 
294 1 106.42 13.7789 17.397 7.81252 
217 1 106.42 15.6976 19.4628 7.69366 
199 1 106.42 17.9029 15.86 5.85016 
184 1 106.42 19.54 17.9036 5.65064 
119 1 106.42 17.5488 19.4689 5.89952 
201 1 106.42 19.7778 19.3581 7.72804 
298 1 106.42 17.6843 17.711 7.796 
223 1 106.42 2.17552 3.9106 9.62044 
203 1 106.42 1.71719 0.128431 9.92149 
208 1 106.42 3.84518 2.03223 9.68274 
207 1 106.42 5.46974 0.0174295 9.65142 
212 1 106.42 7.75388 1.66484 9.89587 
227 1 106.42 5.98875 3.64729 9.75238 
233 1 106.42 11.524 3.85238 7.73383 
213 1 106.42 11.7978 0.0381029 7.97359 
210 1 106.42 9.72795 1.77186 8.02094 
216 1 106.42 11.6054 1.98204 9.90466 
333 1 106.42 11.671 3.94805 11.88 
214 1 106.42 13.5451 1.90232 8.05367 
314 1 106.42 13.4473 1.92949 11.5073 
317 1 106.42 15.6065 0.102495 11.5368 
301 1 106.42 19.5051 -0.0239912 11.6636 
204 1 106.42 19.5908 1.84164 9.87117 
220 1 106.42 15.6088 1.83513 9.61365 
219 1 106.42 17.6719 -0.0190409 9.75454 
318 1 106.42 17.31 2.11469 11.6332 
325 1 106.42 3.92799 3.70246 11.9575 
228 1 106.42 4.08201 5.97847 9.67396 
224 1 106.42 0.199678 6.21414 9.6028 
326 1 106.42 5.98899 5.50362 11.4449 
232 1 106.42 7.87111 5.71077 9.57451 
231 1 106.42 9.64482 3.90483 9.75838 
236 1 106.42 11.711 5.81356 9.70134 
330 1 106.42 9.8108 5.96673 11.8448 
349 1 106.42 8.32983 7.96185 11.8019 
235 1 106.42 13.6017 3.99699 9.78413 
234 1 106.42 13.7699 6.17117 7.91443 
334 1 106.42 13.7404 5.77454 11.709 
353 1 106.42 11.7833 7.73153 11.7886 
257 1 106.42 15.831 7.88523 7.94259 
237 1 106.42 15.714 3.81861 7.9968 
239 1 106.42 17.7865 4.05451 9.74069 
240 1 106.42 15.8542 6.02684 9.83335 
241 1 106.42 0.189339 7.95435 7.91007 
243 1 106.42 2.1188 7.70155 10.2017 
263 1 106.42 2.03056 11.6566 9.75541 
246 1 106.42 5.90556 10.038 7.75574 
247 1 106.42 6.05038 7.68955 9.8189 
248 1 106.42 4.0628 9.67985 9.8651 
267 1 106.42 5.77579 11.7336 9.78315 
346 1 106.42 5.97504 9.62366 11.6897 
252 1 106.42 8.19543 9.80027 9.48323 
251 1 106.42 10.03 7.79181 9.77717 
271 1 106.42 10.1852 11.6083 9.67613 
350 1 106.42 9.89753 9.80367 11.6367 
369 1 106.42 7.94266 11.7946 11.4316 
255 1 106.42 14.0709 7.94876 9.74206 
253 1 106.42 11.8074 7.84647 7.89903 
256 1 106.42 11.9789 9.75 9.81053 
259 1 106.42 17.8834 7.87117 9.75556 
244 1 106.42 19.5628 9.92704 9.96457 
260 1 106.42 15.6552 10.018 9.74718 
279 1 106.42 17.5898 11.8057 9.72458 
358 1 106.42 17.6379 9.97505 11.6756 
261 1 106.42 0.0910287 11.9063 7.79794 
262 1 106.42 1.89486 13.8711 7.99606 
285 1 106.42 3.90594 15.5726 8.01206 
281 1 106.42 0.0108899 15.5191 7.88001 
264 1 106.42 0.0470631 13.6458 9.79549 
268 1 106.42 3.70618 13.6513 10.2525 
289 1 106.42 7.75681 15.6615 7.93635 
287 1 106.42 5.63162 15.4 9.86743 
270 1 106.42 9.86726 13.7915 7.97885 
269 1 106.42 8.03173 11.8247 8.00174 
272 1 106.42 7.79322 13.5643 9.91007 
393 1 106.42 11.6722 15.4288 11.6922 
275 1 106.42 14.0016 12.0192 9.64391 
276 1 106.42 11.9716 13.7001 9.76392 
295 1 106.42 13.8031 15.4777 9.86856 
280 1 106.42 15.826 13.9009 9.8353 
378 1 106.42 17.8097 13.7037 11.6254 
377 1 106.42 15.9757 11.6355 11.6789 
397 1 106.42 16.1125 15.83 11.6609 
283 1 106.42 1.83924 15.5697 10.1155 
282 1 106.42 1.74343 17.4311 7.85472 
205 1 106.42 3.55765 19.5618 7.8494 
288 1 106.42 3.8721 17.6348 9.76841 
286 1 106.42 5.97375 17.7462 7.7089 
292 1 106.42 7.55773 17.5564 9.93438 
209 1 106.42 8.00719 19.4739 8.25915 
291 1 106.42 9.76916 15.6838 9.94394 
290 1 106.42 9.7301 17.494 7.90223 
211 1 106.42 9.81461 19.3694 9.99705 
313 1 106.42 11.7856 19.5677 11.7382 
215 1 106.42 13.8542 19.4395 9.51901 
296 1 106.42 11.7513 17.3029 9.48882 
300 1 106.42 15.723 17.5843 9.79651 
394 1 106.42 13.7915 17.7256 11.4589 
299 1 106.42 17.7998 15.9094 9.75775 
284 1 106.42 19.7236 17.5436 9.84252 
302 1 106.42 1.69779 2.14957 11.978 
305 1 106.42 3.40677 0.305673 11.8673 
308 1 106.42 3.93316 2.14608 13.9022 
303 1 106.42 1.80523 -0.0109108 13.7065 
306 1 106.42 5.75644 1.78788 11.7577 
329 1 106.42 7.92263 3.78842 11.7535 
327 1 106.42 5.85244 3.93526 13.8502 
307 1 106.42 6.12779 0.226574 13.7708 
312 1 106.42 8.0204 2.13882 13.8438 
310 1 106.42 9.85761 1.96528 11.9699 
309 1 106.42 7.82781 0.1497 11.919 
337 1 106.42 15.3725 3.70668 11.8643 
316 1 106.42 11.8747 2.04885 13.8053 
315 1 106.42 13.672 0.170716 13.6847 
414 1 106.42 13.7907 1.99274 15.6385 
433 1 106.42 11.7703 3.82484 15.8237 
304 1 106.42 19.4731 1.99908 13.9811 
320 1 106.42 15.8357 1.83351 13.8522 
319 1 106.42 17.7742 0.161061 13.5937 
321 1 106.42 19.4937 3.70281 11.8466 
417 1 106.42 15.8496 0.159341 15.7169 
323 1 106.42 1.58164 4.15081 13.8402 
322 1 106.42 1.73911 5.69603 11.8199 
328 1 106.42 3.76957 5.81644 13.8061 
445 1 106.42 3.77907 7.58308 15.5391 
345 1 106.42 4.0253 7.70284 11.8445 
332 1 106.42 7.70934 5.91194 13.6774 
426 1 106.42 5.72489 5.84922 15.4388 
331 1 106.42 9.82248 3.96713 13.9004 
351 1 106.42 10.001 7.66375 13.75 
430 1 106.42 9.82817 5.83617 15.8788 
336 1 106.42 11.7736 5.91669 13.8649 
335 1 106.42 13.5616 4.13961 13.7753 
437 1 106.42 15.6386 4.02252 15.429 
340 1 106.42 15.8103 5.89886 13.6358 
341 1 106.42 19.7344 8.03032 11.7427 
324 1 106.42 19.4368 5.93988 13.6772 
338 1 106.42 17.6692 5.75505 11.6841 
339 1 106.42 17.5429 3.87478 13.5786 
359 1 106.42 17.4386 7.86114 13.6032 
357 1 106.42 15.8162 7.85183 11.4371 
438 1 106.42 17.561 6.08003 15.5584 
343 1 106.42 1.92681 7.93077 13.6765 
342 1 106.42 1.84694 10.0905 11.8113 
363 1 106.42 1.95314 11.6967 13.9241 
442 1 106.42 1.90776 9.78199 15.4947 
347 1 106.42 5.94673 7.84271 13.4888 
365 1 106.42 4.08904 11.8241 11.9269 
348 1 106.42 4.02375 9.67973 13.5912 
367 1 106.42 6.09026 11.7184 13.6278 
465 1 106.42 4.21068 11.6912 15.68 
469 1 106.42 7.54657 11.5967 15.7811 
352 1 106.42 7.99282 9.62795 13.8329 
371 1 106.42 9.53578 11.6829 13.8948 
356 1 106.42 11.6196 9.83562 13.6736 
355 1 106.42 13.7393 8.05949 13.5831 
354 1 106.42 13.7374 9.84852 11.5267 
454 1 106.42 13.4987 10.0106 15.6193 
375 1 106.42 13.956 11.5667 13.65 
457 1 106.42 15.8562 8.34712 15.6962 
344 1 106.42 19.4845 9.8802 13.7611 
360 1 106.42 15.8872 9.81228 13.5937 
379 1 106.42 17.6357 11.8176 13.8306 
362 1 106.42 1.83593 13.6768 11.9497 
385 1 106.42 4.17185 15.5521 12.2007 
366 1 106.42 6.0651 13.5309 11.9342 
389 1 106.42 7.52951 15.7072 11.8184 
368 1 106.42 3.89647 13.8919 14.12 
387 1 106.42 5.81323 15.8347 13.8298 
372 1 106.42 7.94867 13.6983 13.6854 
370 1 106.42 9.71456 13.5726 11.6684 
470 1 106.42 9.71028 13.8955 15.7304 
473 1 106.42 11.5033 11.7846 15.7232 
374 1 106.42 13.9053 13.6603 12.1481 
373 1 106.42 11.7885 11.9578 11.9138 
376 1 106.42 11.6849 13.7404 13.6916 
474 1 106.42 13.7312 13.7644 15.3788 
361 1 106.42 19.5489 11.7625 11.9992 
381 1 106.42 19.5669 15.776 12.037 
364 1 106.42 19.2757 13.8853 14.0601 
380 1 106.42 15.7367 13.8645 13.4359 
478 1 106.42 17.3888 13.8086 15.6209 
382 1 106.42 2.09551 17.4901 11.8649 
383 1 106.42 1.89115 15.6896 13.8461 
388 1 106.42 3.94404 18.0103 13.8173 
384 1 106.42 -0.0301183 17.8048 13.6162 
482 1 106.42 1.94033 17.7087 15.6112 
386 1 106.42 5.52451 17.904 11.7423 
392 1 106.42 7.70122 17.8568 13.6058 
391 1 106.42 9.87421 15.5899 13.6717 
390 1 106.42 9.97088 17.7046 11.8043 
311 1 106.42 10.0461 19.4377 13.7997 
396 1 106.42 11.8324 17.5087 13.8294 
395 1 106.42 13.7996 15.7904 13.4383 
400 1 106.42 15.6324 18.1595 13.4622 
493 1 106.42 12.121 15.6034 15.7104 
494 1 106.42 13.9024 17.8826 15.3295 
398 1 106.42 17.7735 17.587 11.8928 
399 1 106.42 17.7479 15.98 13.9357 
497 1 106.42 15.5749 15.8806 15.6349 
498 1 106.42 17.5788 17.9652 15.4435 
5 1 106.42 3.81643 0.0290956 19.4597 
25 1 106.42 3.94742 3.98577 19.7303 
402 1 106.42 1.91288 2.08275 15.6897 
423 1 106.42 1.93453 3.84756 17.6419 
425 1 106.42 3.98838 3.96715 16.0198 
408 1 106.42 4.1423 1.80945 17.9012 
406 1 106.42 5.95665 1.83142 15.746 
407 1 106.42 5.84421 -0.00602423 17.712 
410 1 106.42 9.87761 1.78058 15.6135 
412 1 106.42 7.83244 1.99769 17.4103 
411 1 106.42 9.72336 -0.0082717 17.728 
29 1 106.42 7.9334 3.61004 19.5526 
431 1 106.42 9.72386 3.57416 17.5875 
14 1 106.42 13.868 1.95112 19.4476 
37 1 106.42 15.5555 3.97895 19.6252 
416 1 106.42 11.9587 1.86759 17.7528 
415 1 106.42 14.0344 0.0295104 17.5817 
435 1 106.42 13.7375 3.84531 17.5052 
1 1 106.42 19.4884 0.0998087 19.6856 
418 1 106.42 17.6707 2.28528 15.7851 
401 1 106.42 19.646 0.107173 15.8156 
420 1 106.42 15.9135 2.33672 17.4 
404 1 106.42 19.4139 2.16101 17.7787 
419 1 106.42 17.5738 -0.121108 17.5857 
422 1 106.42 1.68261 6.05207 15.6992 
22 1 106.42 1.96979 5.92168 19.6202 
424 1 106.42 -0.162101 5.95302 18.1364 
428 1 106.42 3.71555 5.91854 17.6346 
443 1 106.42 1.75171 7.77281 17.7591 
429 1 106.42 7.61332 4.01363 16.0289 
427 1 106.42 5.77217 4.20153 17.9113 
447 1 106.42 5.77978 7.68016 17.5836 
33 1 106.42 11.8926 3.77678 19.5413 
449 1 106.42 7.75615 7.59699 15.7122 
432 1 106.42 7.92176 5.98734 17.8954 
451 1 106.42 9.99941 7.71064 17.9083 
34 1 106.42 13.7288 5.93101 19.4674 
434 1 106.42 13.7679 6.18873 15.7523 
453 1 106.42 11.8128 7.87198 15.7668 
436 1 106.42 11.6899 5.76713 17.7018 
440 1 106.42 15.7711 6.15444 17.7985 
501 2 1.01 16.7009 7.2144 18.8144 
421 1 106.42 19.5432 4.26435 15.9192 
439 1 106.42 17.3709 4.3948 17.6492 
41 1 106.42 19.6925 7.90178 19.8538 
461 1 106.42 -0.0184119 11.7383 15.6979 
444 1 106.42 0.0695187 9.79665 17.7154 
448 1 106.42 3.80087 9.50999 17.782 
463 1 106.42 2.06553 11.6274 17.2994 
65 1 106.42 4.04841 11.4964 19.4263 
446 1 106.42 5.76594 9.54132 15.9093 
467 1 106.42 6.01581 11.6639 17.8454 
452 1 106.42 7.76036 9.70719 17.8086 
450 1 106.42 9.59674 9.5505 15.9413 
456 1 106.42 11.6581 9.93001 17.8229 
471 1 106.42 9.42793 11.6861 17.3997 
455 1 106.42 14.1093 8.1001 18.0248 
460 1 106.42 15.7656 10.1206 17.5174 
441 1 106.42 19.5991 7.87704 15.9457 
458 1 106.42 17.8552 9.99126 15.7716 
459 1 106.42 17.7776 8.00845 17.7498 
62 1 106.42 2.21778 13.4951 19.4665 
61 1 106.42 0.252663 11.6306 19.7211 
462 1 106.42 2.03976 13.6836 15.6133 
483 1 106.42 1.74276 15.7313 17.6087 
468 1 106.42 3.78908 13.6864 17.5409 
66 1 106.42 5.92144 13.7748 19.7069 
466 1 106.42 6.03086 13.958 15.4516 
472 1 106.42 7.68281 13.6694 17.481 
487 1 106.42 5.94699 15.72 17.75 
70 1 106.42 9.83627 13.9326 19.3115 
73 1 106.42 11.6687 12.0002 19.3937 
77 1 106.42 15.6941 11.84 19.5691 
74 1 106.42 13.5743 13.812 19.5538 
475 1 106.42 13.5941 11.8084 17.5517 
476 1 106.42 11.6954 13.8752 17.3261 
480 1 106.42 15.6839 13.7802 17.5411 
477 1 106.42 15.6811 12.0422 15.8506 
464 1 106.42 19.6199 13.8019 17.427 
479 1 106.42 17.8894 11.8684 17.7045 
499 1 106.42 17.6905 15.6189 17.749 
405 1 106.42 3.84512 19.487 15.8396 
481 1 106.42 -0.0594964 15.9392 15.5543 
485 1 106.42 3.93883 15.6989 15.6464 
403 1 106.42 1.99565 19.6518 17.6543 
82 1 106.42 1.94679 17.6681 19.6595 
488 1 106.42 3.66079 17.2164 17.6103 
85 1 106.42 3.68342 15.6184 19.4129 
489 1 106.42 7.75016 15.9169 15.7981 
86 1 106.42 5.54097 17.7058 19.3969 
486 1 106.42 5.8212 17.8027 15.5815 
492 1 106.42 7.69129 17.7803 17.9781 
409 1 106.42 8.01094 19.6249 15.5705 
491 1 106.42 9.81816 15.9125 17.7436 
90 1 106.42 9.85124 17.8977 19.6529 
490 1 106.42 9.7271 17.676 15.902 
93 1 106.42 11.8143 15.5461 19.5221 
13 1 106.42 11.9222 19.5919 19.4909 
413 1 106.42 11.8321 19.5952 15.9785 
94 1 106.42 13.8209 17.5873 19.6836 
495 1 106.42 13.6568 15.8433 17.4653 
496 1 106.42 11.8507 17.5712 17.5835 
98 1 106.42 17.5149 17.6027 19.7078 
484 1 106.42 19.5148 17.6243 17.6932 
500 1 106.42 15.6611 17.6805 17.4593 
