ITEM: TIMESTEP
35800
ITEM: NUMBER OF ATOMS
501
ITEM: BOX BOUNDS pp pp pp
0.0000000000000000e+00 1.9629018200000001e+01
0.0000000000000000e+00 1.9629018200000001e+01
0.0000000000000000e+00 1.9629018200000001e+01
ITEM: ATOMS id type mass x y z 
4 1 106.42 -0.00848603 1.91683 2.09591 
102 1 106.42 1.95947 1.97662 3.81665 
23 1 106.42 2.05284 3.77706 2.01865 
121 1 106.42 0.179999 3.85777 3.73446 
105 1 106.42 3.84139 0.317186 3.80017 
8 1 106.42 4.14547 1.89655 1.70055 
125 1 106.42 4.10005 3.91648 3.88706 
12 1 106.42 7.96495 1.8226 2.04147 
31 1 106.42 10.1588 3.8958 2.15178 
16 1 106.42 11.831 1.85723 1.87233 
20 1 106.42 15.5846 1.96417 1.98765 
15 1 106.42 13.5276 0.057716 1.84006 
17 1 106.42 15.6139 -0.0684807 0.247498 
39 1 106.42 17.3363 3.85144 2.02963 
21 1 106.42 19.4071 3.85212 0.0673155 
122 1 106.42 2.09171 5.83589 3.66711 
22 1 106.42 1.90216 6.03206 0.174314 
27 1 106.42 6.26794 4.28082 2.22286 
28 1 106.42 4.10561 5.92033 2.10901 
26 1 106.42 6.22363 5.98275 0.194144 
25 1 106.42 4.03319 4.25037 0.197688 
32 1 106.42 8.18388 5.85957 1.9306 
130 1 106.42 9.92674 5.73207 3.95993 
49 1 106.42 8.21773 7.76235 0.244733 
35 1 106.42 13.7661 3.97341 2.04935 
36 1 106.42 11.9643 5.92398 1.98092 
55 1 106.42 14.0203 7.57742 1.98683 
40 1 106.42 15.6548 5.72353 2.21027 
153 1 106.42 12.0683 7.90179 3.83725 
37 1 106.42 15.5504 4.06704 0.0973014 
24 1 106.42 19.4111 5.58152 1.8067 
38 1 106.42 17.4478 5.9738 0.343554 
43 1 106.42 2.25114 7.92541 2.12189 
44 1 106.42 0.136934 10.0279 1.97686 
142 1 106.42 2.06918 9.85465 3.93408 
42 1 106.42 2.09707 9.71818 0.0906932 
41 1 106.42 0.0647873 8.02844 0.503596 
61 1 106.42 0.376729 11.6046 0.0689997 
48 1 106.42 4.08824 10.0434 1.9624 
47 1 106.42 5.9106 7.85009 1.98516 
46 1 106.42 6.2677 9.73577 0.232799 
51 1 106.42 9.76794 7.97546 2.27086 
52 1 106.42 8.06494 9.99952 2.13397 
50 1 106.42 9.79931 9.94621 0.0826769 
69 1 106.42 8.18922 11.7408 0.158818 
56 1 106.42 11.9158 9.70757 1.84845 
54 1 106.42 13.556 10.2263 0.0671024 
60 1 106.42 15.8585 10.088 1.97695 
57 1 106.42 15.7223 8.08408 0.220933 
59 1 106.42 17.8177 7.8975 2.05334 
58 1 106.42 17.8208 10.0299 0.0370279 
157 1 106.42 15.8872 7.87116 3.8741 
63 1 106.42 2.27957 11.8195 1.89405 
64 1 106.42 0.0302718 13.7243 1.70519 
83 1 106.42 2.15369 15.5195 1.81233 
162 1 106.42 1.78295 13.6927 3.56403 
67 1 106.42 6.22852 11.9102 2.27029 
68 1 106.42 4.16403 13.5177 1.94329 
166 1 106.42 6.11101 13.9309 3.83373 
185 1 106.42 4.05576 15.2346 3.96877 
66 1 106.42 5.98235 13.5005 0.0791597 
72 1 106.42 8.30083 13.836 1.93548 
71 1 106.42 10.1185 11.7272 1.96021 
169 1 106.42 8.08954 11.912 3.86193 
75 1 106.42 13.5143 11.9557 2.06734 
76 1 106.42 11.8345 13.5863 1.82023 
80 1 106.42 15.6414 13.5248 1.85459 
197 1 106.42 15.6333 15.7345 3.53476 
193 1 106.42 11.7042 15.5877 3.81131 
95 1 106.42 13.7596 15.6468 1.84688 
79 1 106.42 18.0762 11.8972 2.03643 
99 1 106.42 17.3642 15.4837 1.6126 
177 1 106.42 15.8095 11.9808 3.82941 
178 1 106.42 17.7423 13.7822 3.63452 
101 1 106.42 0.106568 19.5308 3.80639 
3 1 106.42 1.96024 19.7215 2.00587 
88 1 106.42 3.78491 17.269 2.31196 
82 1 106.42 1.9235 17.6486 0.166231 
7 1 106.42 5.76789 19.4713 1.54623 
87 1 106.42 5.80719 15.7893 1.38756 
92 1 106.42 7.69521 17.4801 1.90068 
11 1 106.42 9.88992 19.6224 1.93841 
91 1 106.42 9.84342 15.9473 1.90943 
190 1 106.42 9.75076 17.5075 3.98598 
96 1 106.42 11.8139 17.5118 1.88438 
90 1 106.42 9.83892 17.7784 0.00302548 
100 1 106.42 15.7157 17.8598 2.25929 
194 1 106.42 13.654 17.6715 3.85641 
94 1 106.42 13.6536 17.385 -0.0352248 
19 1 106.42 17.7332 19.5939 2.10304 
181 1 106.42 19.543 15.8512 3.46279 
84 1 106.42 19.4722 17.6138 1.58252 
198 1 106.42 17.7627 17.7269 3.96989 
98 1 106.42 17.4376 17.6352 0.0503739 
108 1 106.42 3.91375 2.08046 5.6965 
202 1 106.42 1.94238 2.05164 7.91403 
103 1 106.42 2.00109 0.379451 5.70465 
205 1 106.42 3.60984 0.212953 7.78103 
106 1 106.42 5.82545 1.82929 4.19018 
229 1 106.42 7.87831 3.85122 7.735 
112 1 106.42 7.78654 1.97256 5.90128 
110 1 106.42 9.77894 1.82241 4.09415 
116 1 106.42 11.667 2.06529 6.13213 
111 1 106.42 9.56658 0.113613 6.0062 
137 1 106.42 15.4383 3.8181 4.22235 
114 1 106.42 13.6781 1.53043 4.07471 
135 1 106.42 13.7454 3.81061 6.07238 
120 1 106.42 15.4994 1.76538 6.04008 
133 1 106.42 12.005 3.7239 4.03952 
104 1 106.42 19.5513 1.87163 5.80401 
118 1 106.42 17.4863 1.97515 3.99876 
218 1 106.42 17.6696 1.64816 7.9822 
123 1 106.42 1.83787 4.00059 6.03421 
128 1 106.42 3.73661 5.9241 5.91798 
126 1 106.42 5.89876 5.91618 4.01802 
225 1 106.42 4.03935 3.97719 7.82868 
127 1 106.42 6.02778 3.96717 6.03387 
132 1 106.42 7.66259 5.94343 5.8776 
226 1 106.42 5.67382 6.00646 7.75963 
129 1 106.42 7.93033 3.92759 4.03289 
131 1 106.42 9.72881 3.92378 5.81394 
230 1 106.42 9.72325 5.75461 7.79408 
149 1 106.42 7.87306 7.71957 4.00781 
151 1 106.42 9.67582 7.51328 6.11438 
233 1 106.42 11.5985 4.11263 7.67929 
253 1 106.42 11.7071 7.70233 7.66974 
134 1 106.42 14.0041 5.89493 4.1778 
136 1 106.42 11.7358 6.09506 5.92323 
140 1 106.42 15.7282 5.95183 6.07598 
155 1 106.42 13.9532 7.83734 5.91062 
141 1 106.42 19.5719 7.66066 4.11173 
139 1 106.42 17.7234 3.95866 5.7011 
124 1 106.42 19.4963 5.8374 5.95958 
138 1 106.42 17.5492 6.07001 4.00774 
238 1 106.42 17.4259 5.43566 7.82006 
161 1 106.42 0.136475 11.715 4.15546 
143 1 106.42 1.96131 8.11191 6.01063 
144 1 106.42 0.134087 9.86481 5.93094 
148 1 106.42 4.04363 9.87602 5.72284 
145 1 106.42 4.04329 8.01117 3.93403 
146 1 106.42 6.47747 9.7383 3.96625 
147 1 106.42 5.70112 8.02129 5.99424 
246 1 106.42 5.88759 9.94121 7.57828 
152 1 106.42 7.96344 9.77585 5.94347 
150 1 106.42 10.1174 9.63717 4.17474 
250 1 106.42 9.90392 9.6621 7.65105 
154 1 106.42 13.8561 9.6191 3.96418 
156 1 106.42 11.8389 9.46557 6.00718 
277 1 106.42 15.6744 11.9064 7.61516 
175 1 106.42 13.6053 11.6798 5.83139 
159 1 106.42 17.7697 8.13135 6.3794 
158 1 106.42 17.6678 9.76336 4.05473 
160 1 106.42 15.792 10.1892 5.71067 
163 1 106.42 2.16708 11.7335 6.05627 
168 1 106.42 3.64996 13.9256 5.97608 
167 1 106.42 5.91073 11.9054 5.88157 
165 1 106.42 4.04222 11.971 3.99042 
172 1 106.42 7.88148 13.7564 6.29219 
266 1 106.42 5.77199 13.3958 7.55384 
170 1 106.42 9.8813 13.9347 3.98324 
171 1 106.42 9.70886 11.8961 5.73833 
176 1 106.42 11.9131 13.5679 5.87743 
191 1 106.42 9.64243 15.653 6.0579 
174 1 106.42 13.7854 13.824 3.99545 
173 1 106.42 11.8403 11.8808 4.03661 
195 1 106.42 13.816 15.688 5.62348 
274 1 106.42 13.8007 13.6968 7.64914 
180 1 106.42 15.6673 13.8891 5.67056 
179 1 106.42 17.8254 12.2116 5.81261 
164 1 106.42 19.5749 13.7149 5.96396 
261 1 106.42 19.5865 11.8142 7.69844 
182 1 106.42 1.97144 17.5882 3.97246 
183 1 106.42 1.57386 15.7627 5.99267 
188 1 106.42 3.76055 17.6792 6.09725 
282 1 106.42 1.88126 17.423 7.85991 
189 1 106.42 7.61058 15.9512 4.11687 
107 1 106.42 6.02863 19.5485 5.89131 
186 1 106.42 5.59022 17.8075 3.87211 
187 1 106.42 5.75844 15.8612 5.92655 
286 1 106.42 5.92527 17.8977 7.63681 
109 1 106.42 7.91804 19.4788 4.03543 
192 1 106.42 7.94431 17.5098 6.07901 
196 1 106.42 11.6857 17.4395 5.76978 
113 1 106.42 11.288 19.5429 4.10269 
290 1 106.42 9.80834 17.5784 7.79998 
115 1 106.42 13.5537 19.5115 6.0371 
117 1 106.42 15.6198 19.6957 4.15232 
200 1 106.42 15.6817 17.2995 5.71072 
294 1 106.42 13.9153 17.299 7.65865 
217 1 106.42 15.6186 19.4263 7.80829 
297 1 106.42 15.8876 15.7136 7.78582 
199 1 106.42 17.7833 15.8505 5.80887 
184 1 106.42 19.5698 18.1083 5.72158 
119 1 106.42 17.3534 19.4456 5.92237 
298 1 106.42 17.7574 17.5507 7.78596 
221 1 106.42 0.14514 3.86501 7.98586 
203 1 106.42 1.82607 0.0517235 9.87712 
208 1 106.42 3.72441 1.90033 9.76694 
206 1 106.42 5.93195 1.83239 7.92442 
212 1 106.42 7.79528 1.78094 9.88365 
227 1 106.42 5.94659 3.63395 9.58727 
306 1 106.42 5.82667 1.84249 11.6869 
210 1 106.42 9.57306 1.93653 8.08056 
216 1 106.42 11.8093 1.90011 9.81562 
231 1 106.42 9.69733 3.50496 9.89678 
329 1 106.42 8.02324 3.95025 11.7622 
214 1 106.42 13.4483 1.70964 7.90519 
314 1 106.42 13.8018 1.95218 11.6068 
317 1 106.42 15.7147 0.0169494 11.5148 
220 1 106.42 15.5532 1.77412 9.75979 
237 1 106.42 15.6468 3.5606 7.85249 
337 1 106.42 15.3985 3.69644 11.6583 
204 1 106.42 19.5946 1.97998 9.80631 
318 1 106.42 17.6009 1.9106 11.6145 
321 1 106.42 19.4717 3.98334 11.5472 
222 1 106.42 1.9755 6.01228 7.90697 
223 1 106.42 2.17859 4.12678 9.8216 
224 1 106.42 0.0726338 5.97188 9.66673 
243 1 106.42 2.02474 7.76558 10.0731 
322 1 106.42 1.71915 5.77133 11.7231 
228 1 106.42 4.23247 5.87696 9.87067 
326 1 106.42 6.04484 5.72599 11.7664 
247 1 106.42 6.23772 7.7435 9.80936 
249 1 106.42 7.99374 7.62886 8.02065 
232 1 106.42 7.84135 5.43359 9.76218 
251 1 106.42 10.0339 7.62501 9.70361 
236 1 106.42 11.8539 5.80783 9.96217 
235 1 106.42 13.6019 3.91552 9.54712 
234 1 106.42 13.6327 6.01652 8.02738 
334 1 106.42 13.6362 5.90478 11.7263 
239 1 106.42 17.6392 3.83296 9.77507 
240 1 106.42 15.7656 5.91275 9.63382 
259 1 106.42 17.8456 7.7855 9.99921 
338 1 106.42 17.609 5.83065 11.532 
245 1 106.42 3.80179 8.1086 7.88857 
242 1 106.42 2.03988 9.97993 8.13897 
265 1 106.42 3.7697 11.7098 8.03919 
241 1 106.42 0.117454 7.94742 7.91463 
263 1 106.42 2.05347 11.8003 10.1922 
244 1 106.42 0.118742 9.94143 9.76371 
341 1 106.42 0.110147 8.21057 11.758 
342 1 106.42 2.11568 9.89352 11.785 
248 1 106.42 3.96759 9.74412 9.79449 
267 1 106.42 5.76761 11.7992 9.85731 
346 1 106.42 5.85648 9.58165 11.5273 
252 1 106.42 7.91629 9.86273 9.77263 
271 1 106.42 10.1145 11.6867 9.84191 
350 1 106.42 10.0295 9.85098 11.6894 
269 1 106.42 7.9917 11.6884 7.92011 
254 1 106.42 13.9179 9.83965 8.0572 
273 1 106.42 11.8747 11.6141 7.81134 
255 1 106.42 13.6554 7.78586 9.91434 
256 1 106.42 11.9259 9.69222 9.7292 
260 1 106.42 15.6692 10.0436 9.74614 
354 1 106.42 13.6325 10.0262 11.5173 
258 1 106.42 17.7055 10.1334 7.94505 
257 1 106.42 15.877 8.19807 8.02713 
358 1 106.42 17.6686 9.96255 11.5999 
377 1 106.42 15.7836 11.7555 11.8245 
357 1 106.42 15.7488 8.00293 11.4112 
262 1 106.42 1.84537 13.7905 7.91131 
268 1 106.42 3.77168 13.5649 10.169 
283 1 106.42 2.04147 15.4833 9.92232 
285 1 106.42 3.93772 15.6376 7.90458 
287 1 106.42 5.63537 15.3062 9.80714 
272 1 106.42 7.65149 13.8057 9.69113 
293 1 106.42 11.6953 15.6587 7.85381 
369 1 106.42 7.89005 11.7519 11.5445 
270 1 106.42 10.0705 13.684 7.84056 
393 1 106.42 11.793 15.665 11.6955 
291 1 106.42 9.69686 15.5731 9.80728 
370 1 106.42 9.64838 13.4388 11.5403 
275 1 106.42 13.8225 12.0284 9.72026 
276 1 106.42 11.7929 13.4729 9.86481 
295 1 106.42 13.6608 15.4368 9.62158 
278 1 106.42 17.6631 14.0474 8.04855 
279 1 106.42 17.7131 11.9856 9.48097 
281 1 106.42 19.4959 15.8255 7.85888 
264 1 106.42 19.4835 13.6687 9.7538 
280 1 106.42 15.8254 13.733 10.0017 
378 1 106.42 17.7694 13.632 11.8412 
201 1 106.42 0.254444 19.5149 7.9573 
288 1 106.42 3.74298 17.4928 9.55388 
284 1 106.42 0.238192 17.6506 9.79836 
207 1 106.42 5.43303 19.4764 9.66272 
289 1 106.42 7.79374 15.8503 7.97945 
292 1 106.42 7.58608 17.6182 10.0161 
386 1 106.42 5.62035 18.0672 11.7013 
213 1 106.42 11.634 19.3906 7.92904 
209 1 106.42 7.84872 19.3241 7.88197 
211 1 106.42 9.8964 19.4912 9.8621 
313 1 106.42 11.786 19.6068 11.7034 
296 1 106.42 11.6937 17.5467 9.59956 
215 1 106.42 13.7411 19.3857 9.58195 
394 1 106.42 13.7244 17.7112 11.516 
301 1 106.42 19.5125 19.488 11.7979 
219 1 106.42 17.7949 19.4033 9.67138 
397 1 106.42 15.9273 15.9406 11.7727 
300 1 106.42 15.8378 17.6528 9.86086 
299 1 106.42 17.9035 15.933 9.83444 
398 1 106.42 17.8821 17.7041 11.5963 
302 1 106.42 1.44776 2.0045 12.016 
305 1 106.42 3.49133 0.325342 11.8326 
303 1 106.42 1.75252 0.0710792 13.8563 
402 1 106.42 1.75675 2.09415 15.6917 
325 1 106.42 3.91656 3.64722 11.9474 
308 1 106.42 4.01484 2.2585 14.1092 
327 1 106.42 5.9386 3.81352 13.7957 
307 1 106.42 6.04782 0.146045 13.6172 
309 1 106.42 7.84208 0.106163 11.7078 
312 1 106.42 7.94832 2.13957 13.6039 
310 1 106.42 9.89623 1.88571 12.0391 
410 1 106.42 9.88651 1.77152 15.553 
409 1 106.42 7.80235 0.00858115 15.4769 
316 1 106.42 11.8232 2.08339 13.6227 
315 1 106.42 13.6061 0.330844 13.6764 
414 1 106.42 13.7751 2.05665 15.6831 
304 1 106.42 19.4877 2.01702 13.9805 
320 1 106.42 15.6919 1.88871 13.8405 
319 1 106.42 17.56 0.118619 13.5996 
339 1 106.42 17.7216 3.72933 13.5407 
418 1 106.42 17.7519 2.4454 15.5951 
323 1 106.42 1.65122 3.95072 13.667 
328 1 106.42 3.75038 5.67182 13.6616 
445 1 106.42 3.68665 7.72051 15.6416 
422 1 106.42 1.81459 5.92837 15.6618 
345 1 106.42 3.88578 7.74028 11.8386 
332 1 106.42 7.8208 5.76125 13.7605 
426 1 106.42 5.8701 5.9728 15.8021 
347 1 106.42 6.00967 7.6037 13.5308 
449 1 106.42 7.73701 7.58263 15.6459 
333 1 106.42 11.7561 4.0956 11.9183 
330 1 106.42 9.78533 5.89207 11.8456 
331 1 106.42 9.79932 4.00187 14.1809 
351 1 106.42 9.96782 7.7544 13.8319 
336 1 106.42 11.9269 5.86613 13.8845 
335 1 106.42 13.6409 4.03531 13.9994 
437 1 106.42 15.6932 3.99785 15.4261 
340 1 106.42 15.6749 6.06211 13.7222 
324 1 106.42 19.2516 5.91894 13.5704 
438 1 106.42 17.5547 6.0814 15.6656 
343 1 106.42 1.92226 7.86693 13.533 
442 1 106.42 2.13751 9.68619 15.7911 
348 1 106.42 4.05288 9.92255 13.6349 
367 1 106.42 6.27031 11.7244 13.6818 
349 1 106.42 8.12365 8.0817 11.761 
352 1 106.42 7.9039 9.7537 13.789 
371 1 106.42 9.69722 11.6791 13.8842 
356 1 106.42 11.819 9.95486 13.4835 
353 1 106.42 11.8412 7.95798 11.9088 
355 1 106.42 13.7556 8.0251 13.6594 
375 1 106.42 13.8836 11.7036 13.7563 
360 1 106.42 15.5489 9.72204 13.5831 
359 1 106.42 17.4788 8.08491 13.4707 
344 1 106.42 19.494 9.79068 13.7034 
363 1 106.42 2.12394 11.8181 13.9672 
362 1 106.42 1.75754 13.8189 12.165 
368 1 106.42 3.88041 13.7623 13.7389 
383 1 106.42 1.7303 15.5991 13.9816 
462 1 106.42 1.87166 13.6646 15.6217 
365 1 106.42 3.96497 11.8772 12.09 
385 1 106.42 3.88329 15.636 11.9647 
366 1 106.42 5.9713 13.7369 11.8407 
466 1 106.42 5.90875 13.9112 15.4662 
485 1 106.42 3.94016 15.6151 15.6734 
372 1 106.42 8.04992 13.8645 13.6106 
373 1 106.42 11.6213 11.7811 11.8761 
376 1 106.42 11.5394 13.598 13.5188 
391 1 106.42 9.81766 15.4743 13.5782 
374 1 106.42 13.6447 13.4766 11.9345 
474 1 106.42 13.7454 13.6885 15.3774 
493 1 106.42 11.9118 15.6459 15.4815 
379 1 106.42 17.6621 12.0189 13.9529 
361 1 106.42 19.6845 11.8207 12.0578 
364 1 106.42 19.4575 14.0103 13.8423 
380 1 106.42 15.7506 13.7983 13.5702 
478 1 106.42 17.4431 13.8454 15.7232 
461 1 106.42 19.6092 11.8901 15.5188 
382 1 106.42 2.10793 17.5216 11.8495 
482 1 106.42 2.01099 17.7097 15.7387 
389 1 106.42 7.51017 15.8494 11.8016 
387 1 106.42 5.99342 16.0769 13.707 
388 1 106.42 4.04911 18.059 13.7184 
392 1 106.42 7.96147 17.6636 13.713 
489 1 106.42 7.80401 15.8797 15.5863 
486 1 106.42 5.95522 17.7916 15.6344 
390 1 106.42 9.98942 17.6709 11.8532 
311 1 106.42 10.0726 19.6348 13.7124 
396 1 106.42 11.9909 17.6789 13.8277 
395 1 106.42 13.8136 15.9255 13.445 
400 1 106.42 15.6418 17.9117 13.8538 
494 1 106.42 13.7562 17.8747 15.4812 
497 1 106.42 15.5118 15.8942 15.6141 
381 1 106.42 19.5982 15.8652 12.0596 
384 1 106.42 19.6062 17.9321 13.932 
399 1 106.42 17.4308 16.0657 13.8381 
498 1 106.42 17.5561 17.8632 15.6904 
481 1 106.42 19.3296 15.9865 15.6785 
2 1 106.42 1.92379 1.95335 19.4774 
401 1 106.42 0.0282531 -0.043711 15.8632 
403 1 106.42 1.9374 0.149165 17.6514 
6 1 106.42 6.06848 1.9649 19.5925 
9 1 106.42 7.6404 -0.0119096 19.65 
408 1 106.42 3.92875 2.06222 17.7681 
406 1 106.42 5.71479 1.89673 15.7885 
412 1 106.42 7.72517 1.93381 17.4798 
29 1 106.42 7.85601 3.77262 19.5127 
10 1 106.42 9.93772 1.84669 19.5091 
433 1 106.42 11.6687 3.82847 16.0289 
431 1 106.42 9.9368 3.76208 17.7928 
413 1 106.42 11.6924 0.0521818 15.9993 
14 1 106.42 14.1154 2.07988 19.5725 
416 1 106.42 11.9855 1.82308 17.7693 
33 1 106.42 11.9756 3.80737 19.5268 
18 1 106.42 17.2285 1.9927 19.5662 
417 1 106.42 15.8378 0.0619446 15.8183 
1 1 106.42 19.6333 0.10583 19.5202 
420 1 106.42 15.7696 2.36349 17.409 
404 1 106.42 19.3988 2.04288 17.6534 
423 1 106.42 2.01251 4.01444 17.83 
425 1 106.42 3.7233 4.05449 15.9636 
428 1 106.42 3.93738 5.9621 17.6767 
443 1 106.42 1.84141 7.7678 17.6604 
45 1 106.42 4.1127 7.66222 19.6981 
429 1 106.42 7.42791 4.08238 15.8753 
427 1 106.42 5.74799 3.96329 17.9231 
447 1 106.42 6.03001 7.59088 17.6692 
432 1 106.42 7.79394 5.86894 17.716 
30 1 106.42 10.0649 5.73803 19.4914 
430 1 106.42 9.92282 6.17336 16.0181 
436 1 106.42 11.7115 5.8752 17.5066 
53 1 106.42 11.9302 7.74001 19.5069 
435 1 106.42 13.8645 4.04732 17.457 
34 1 106.42 13.5334 5.65599 19.3579 
434 1 106.42 13.8027 6.09679 15.7728 
424 1 106.42 19.4561 6.12749 18.1663 
440 1 106.42 15.8367 6.3452 17.8777 
501 2 1.01 16.9866 7.27178 19.0619 
421 1 106.42 19.5123 4.3771 15.9424 
439 1 106.42 17.6079 4.30953 17.7148 
441 1 106.42 19.5828 7.71154 15.6097 
444 1 106.42 0.0572366 10.0578 17.5487 
448 1 106.42 3.95956 9.29368 17.6891 
463 1 106.42 2.04198 11.607 17.3663 
465 1 106.42 4.17361 11.6837 15.7814 
469 1 106.42 7.58421 11.4709 15.7999 
65 1 106.42 3.96051 11.5067 19.2952 
446 1 106.42 5.77656 9.55983 15.6742 
452 1 106.42 7.85499 9.65513 17.7444 
473 1 106.42 11.6628 11.4417 15.9256 
451 1 106.42 9.84759 8.00667 17.7554 
453 1 106.42 11.6381 8.07421 15.6996 
450 1 106.42 9.66252 9.36543 15.6042 
456 1 106.42 11.6854 9.70869 17.7866 
454 1 106.42 13.5576 9.8202 15.8419 
455 1 106.42 13.8641 8.30022 17.9715 
457 1 106.42 15.6362 8.08664 15.7969 
460 1 106.42 15.8512 10.2018 17.5257 
458 1 106.42 17.848 9.82153 15.7331 
459 1 106.42 17.876 7.96933 17.7901 
81 1 106.42 0.179739 15.4571 19.456 
62 1 106.42 2.0471 13.4734 19.4691 
483 1 106.42 1.73479 15.6526 17.4662 
468 1 106.42 3.98568 13.6676 17.5372 
464 1 106.42 0.264763 13.6515 17.3822 
85 1 106.42 3.56157 15.4408 19.6231 
467 1 106.42 6.08407 11.8105 17.835 
472 1 106.42 7.62515 13.6077 17.6514 
487 1 106.42 6.09558 15.6249 17.7662 
470 1 106.42 9.91508 13.8624 15.803 
471 1 106.42 9.5481 11.8431 17.3853 
70 1 106.42 9.90095 13.9056 19.2686 
73 1 106.42 11.6571 11.7266 19.4479 
476 1 106.42 11.5981 13.7098 17.5839 
97 1 106.42 15.6793 15.6606 19.3101 
74 1 106.42 13.7036 13.6333 19.4192 
475 1 106.42 13.6515 11.9153 17.5557 
480 1 106.42 15.6082 13.7018 17.5823 
477 1 106.42 15.5817 11.833 15.5902 
93 1 106.42 11.8035 15.6495 19.4503 
78 1 106.42 17.8138 13.6461 19.5864 
77 1 106.42 15.862 11.7781 19.5109 
479 1 106.42 17.8403 11.991 17.5874 
499 1 106.42 17.8525 15.7238 17.8253 
5 1 106.42 3.74277 19.4302 19.5892 
405 1 106.42 3.84617 19.7287 15.755 
488 1 106.42 3.70887 17.2568 17.6777 
407 1 106.42 5.48264 19.2877 17.4768 
86 1 106.42 5.4723 17.4772 19.4396 
492 1 106.42 7.61741 17.6991 17.7023 
89 1 106.42 7.96938 15.8308 19.5188 
411 1 106.42 9.58025 19.6012 17.7447 
491 1 106.42 9.47939 15.9866 17.5989 
490 1 106.42 9.8733 17.6571 15.6863 
415 1 106.42 13.9148 19.5731 17.6582 
13 1 106.42 11.7705 19.4426 19.4047 
495 1 106.42 13.7265 15.7423 17.5223 
496 1 106.42 11.7994 17.521 17.5446 
500 1 106.42 15.647 17.5809 17.5883 
419 1 106.42 17.5747 19.54 17.6836 
484 1 106.42 19.5626 17.6355 17.62 
