ITEM: TIMESTEP
37300
ITEM: NUMBER OF ATOMS
501
ITEM: BOX BOUNDS pp pp pp
0.0000000000000000e+00 1.9629018200000001e+01
0.0000000000000000e+00 1.9629018200000001e+01
0.0000000000000000e+00 1.9629018200000001e+01
ITEM: ATOMS id type mass x y z 
102 1 106.42 1.94154 2.05639 4.06397 
23 1 106.42 1.96542 3.89278 1.88485 
121 1 106.42 19.5976 4.02192 4.04724 
105 1 106.42 3.82254 -0.0188783 3.7038 
3 1 106.42 1.75575 0.209341 1.96141 
8 1 106.42 3.9498 1.89828 1.78862 
125 1 106.42 4.05482 3.79559 3.62946 
106 1 106.42 5.99049 1.94682 3.52523 
12 1 106.42 8.03954 1.95513 1.83246 
16 1 106.42 11.7388 1.60772 2.02932 
20 1 106.42 15.4836 1.8413 1.83607 
4 1 106.42 19.4564 1.95166 1.80165 
19 1 106.42 17.4731 -0.0680444 1.67805 
122 1 106.42 1.89741 5.8545 4.07942 
22 1 106.42 2.17907 6.00557 0.454872 
27 1 106.42 5.93388 3.72263 1.6548 
28 1 106.42 4.05702 5.96969 2.16421 
26 1 106.42 5.91367 5.85222 0.110121 
25 1 106.42 4.19289 3.95654 0.0872103 
45 1 106.42 3.99324 8.06357 0.213751 
31 1 106.42 10.019 3.76871 1.92479 
32 1 106.42 8.26593 5.75606 2.13694 
49 1 106.42 7.90225 7.77417 0.215578 
35 1 106.42 13.6464 3.75532 2.0384 
36 1 106.42 11.9698 5.95299 2.33214 
55 1 106.42 13.9104 8.12704 1.9324 
40 1 106.42 15.5285 6.0406 2.29234 
37 1 106.42 15.7943 4.02317 19.5833 
53 1 106.42 12.0022 7.86493 0.229683 
39 1 106.42 17.8784 4.02407 2.10432 
24 1 106.42 0.164103 6.10388 2.20388 
38 1 106.42 17.8221 6.07939 0.123606 
43 1 106.42 1.99327 8.15646 2.32993 
44 1 106.42 0.222756 9.86841 2.40118 
42 1 106.42 2.08483 9.79801 19.2918 
41 1 106.42 0.109707 7.997 0.000766712 
63 1 106.42 2.1538 11.5215 1.72698 
48 1 106.42 4.16761 9.79835 2.27627 
47 1 106.42 6.19856 7.83123 2.14749 
46 1 106.42 5.9742 9.99456 0.111316 
145 1 106.42 4.00939 7.69849 4.02074 
146 1 106.42 6.06251 10.0361 3.91052 
51 1 106.42 10.1431 7.79397 1.95211 
52 1 106.42 8.00959 9.73025 1.87809 
71 1 106.42 9.749 11.7695 2.02811 
153 1 106.42 11.9236 8.10608 3.9643 
56 1 106.42 11.9651 10.0122 1.78672 
54 1 106.42 14.0862 9.96242 19.4333 
154 1 106.42 14.0241 9.92063 3.77461 
173 1 106.42 11.7463 11.5276 3.76914 
60 1 106.42 15.9726 9.93401 1.95965 
57 1 106.42 15.7187 7.95987 0.0850088 
59 1 106.42 17.6371 7.978 2.11234 
58 1 106.42 17.9169 9.84369 0.0792125 
83 1 106.42 1.79597 15.764 1.94697 
162 1 106.42 2.12867 13.6705 3.77146 
85 1 106.42 4.27168 15.4937 19.3289 
67 1 106.42 6.11738 11.6861 1.95632 
68 1 106.42 3.79774 13.8063 1.90068 
166 1 106.42 5.89741 13.5221 4.0517 
66 1 106.42 6.0656 13.4961 -0.106336 
87 1 106.42 5.93779 15.4335 2.20013 
69 1 106.42 7.9811 11.617 19.4464 
72 1 106.42 7.82917 13.6122 2.03142 
76 1 106.42 11.6157 13.9546 1.86611 
193 1 106.42 11.958 15.6864 3.91384 
75 1 106.42 13.8757 11.8129 1.8295 
80 1 106.42 15.9169 13.7738 1.8775 
95 1 106.42 13.6304 15.6204 1.89452 
64 1 106.42 19.5361 13.8219 1.85398 
79 1 106.42 17.6871 11.859 1.95665 
99 1 106.42 17.7248 15.816 1.67269 
178 1 106.42 17.6066 13.833 3.67545 
88 1 106.42 3.86132 17.5579 1.62705 
82 1 106.42 2.00151 17.5179 0.015042 
5 1 106.42 3.81461 19.6464 0.0501353 
7 1 106.42 5.84126 19.5123 1.97774 
92 1 106.42 8.00683 17.6744 1.94374 
186 1 106.42 5.83804 17.5291 3.71876 
109 1 106.42 7.87291 19.6777 3.90242 
9 1 106.42 7.76383 19.2088 19.4553 
11 1 106.42 9.79029 19.3988 1.87332 
91 1 106.42 9.72984 15.7372 2.03763 
15 1 106.42 13.7606 19.346 1.74985 
17 1 106.42 15.5189 19.4756 19.6281 
197 1 106.42 15.7106 15.5993 4.01274 
96 1 106.42 11.5905 17.4825 2.01754 
101 1 106.42 19.5933 -0.0161111 3.92039 
100 1 106.42 15.7313 17.3696 1.80539 
181 1 106.42 19.6953 15.7909 3.88239 
84 1 106.42 19.4923 17.942 2.02246 
103 1 106.42 2.02473 -0.0461508 5.7607 
205 1 106.42 3.8533 0.132242 7.56564 
108 1 106.42 3.86468 2.13563 5.8287 
112 1 106.42 7.62844 1.8213 5.79507 
110 1 106.42 9.87089 1.95586 3.80165 
116 1 106.42 11.6998 1.65305 5.77503 
111 1 106.42 9.73842 19.4562 5.57624 
129 1 106.42 7.98092 4.00325 3.99384 
131 1 106.42 9.98656 4.01717 6.14708 
137 1 106.42 15.7814 3.62447 3.63083 
114 1 106.42 13.5961 1.98386 3.88984 
135 1 106.42 13.5509 3.90225 5.88463 
120 1 106.42 15.6024 1.80551 5.68438 
133 1 106.42 11.7539 3.93231 4.12086 
117 1 106.42 15.6452 19.5421 3.83747 
214 1 106.42 13.7547 1.6322 7.77875 
237 1 106.42 15.7161 3.81286 7.69996 
104 1 106.42 19.6022 1.99771 5.96044 
118 1 106.42 17.7313 1.81904 3.86169 
139 1 106.42 17.6029 3.65425 5.91369 
123 1 106.42 1.7045 3.91854 5.80965 
128 1 106.42 3.81001 5.56793 5.88585 
222 1 106.42 2.01713 5.84378 7.87684 
126 1 106.42 5.8982 5.7045 4.17885 
127 1 106.42 5.88767 3.70071 6.01881 
132 1 106.42 8.10703 5.62752 6.17657 
226 1 106.42 5.66904 5.71142 8.00921 
149 1 106.42 7.88009 7.50883 3.93781 
130 1 106.42 9.8132 5.99944 3.97419 
229 1 106.42 7.81726 3.87808 8.18816 
151 1 106.42 9.71971 7.85836 6.00745 
233 1 106.42 11.8004 3.79326 8.06861 
253 1 106.42 11.7853 7.62626 7.96972 
136 1 106.42 11.8503 6.02977 5.86492 
134 1 106.42 13.7829 5.88578 4.01463 
140 1 106.42 15.8185 5.53657 5.82802 
141 1 106.42 0.217576 7.90816 4.14049 
124 1 106.42 19.6014 6.04588 6.1127 
138 1 106.42 17.9108 5.85386 4.07038 
142 1 106.42 2.22994 9.97785 4.12519 
143 1 106.42 2.16986 7.82393 5.81229 
144 1 106.42 19.5677 9.72007 5.96562 
163 1 106.42 2.36509 11.7095 5.95725 
148 1 106.42 4.29523 9.68229 5.79546 
147 1 106.42 6.18131 7.66896 5.76619 
246 1 106.42 5.7559 9.91702 8.15364 
152 1 106.42 7.69579 9.90651 5.8834 
150 1 106.42 9.53117 9.71506 3.85419 
250 1 106.42 9.63088 9.56183 7.98182 
273 1 106.42 11.8188 11.6094 7.77057 
155 1 106.42 14.033 8.0461 6.19241 
156 1 106.42 11.8203 9.60659 5.85838 
175 1 106.42 13.7642 11.5325 5.8421 
157 1 106.42 15.5605 7.87412 4.2224 
159 1 106.42 17.5434 7.7771 5.85939 
158 1 106.42 17.8614 10.0716 3.89944 
160 1 106.42 15.8474 9.86186 6.21962 
261 1 106.42 0.0806542 11.8881 7.77323 
161 1 106.42 0.0904843 11.9862 4.2133 
168 1 106.42 4.14855 13.4742 5.84252 
164 1 106.42 0.308064 13.8291 5.787 
185 1 106.42 3.69858 15.7594 3.84038 
167 1 106.42 6.00334 11.7618 5.87615 
165 1 106.42 3.9511 11.8996 3.71472 
285 1 106.42 3.61739 15.5779 7.50738 
169 1 106.42 7.92968 11.861 4.02668 
172 1 106.42 7.70268 13.6817 6.03233 
170 1 106.42 9.8304 13.7 4.00182 
171 1 106.42 10.2497 11.4734 5.84256 
191 1 106.42 9.73937 15.4599 6.08039 
270 1 106.42 9.81749 13.4971 7.75504 
177 1 106.42 15.786 12.041 3.87197 
176 1 106.42 11.8139 13.7693 5.809 
174 1 106.42 13.5588 13.6525 3.83026 
274 1 106.42 13.8831 13.8215 7.87075 
277 1 106.42 15.9296 12.0769 8.02616 
180 1 106.42 15.7643 13.9826 5.94667 
179 1 106.42 17.673 11.8434 5.65654 
199 1 106.42 17.9796 15.5977 5.68298 
182 1 106.42 1.74522 17.8321 3.62026 
183 1 106.42 2.04346 15.6995 5.61707 
188 1 106.42 4.00572 17.7281 5.56063 
282 1 106.42 2.36601 17.8976 7.61258 
184 1 106.42 0.0656827 17.694 6.2142 
189 1 106.42 8.08885 15.5541 3.82626 
107 1 106.42 5.69527 19.6755 5.58169 
187 1 106.42 5.97446 15.4936 5.96462 
286 1 106.42 5.36759 17.5805 7.83986 
192 1 106.42 7.60425 17.8549 5.7446 
209 1 106.42 7.70529 19.5755 7.80202 
190 1 106.42 9.79969 17.5226 4.16541 
113 1 106.42 11.8264 19.5329 3.90037 
290 1 106.42 9.65252 17.5005 7.86033 
293 1 106.42 11.7622 15.6695 7.87519 
213 1 106.42 11.797 19.5727 7.68608 
194 1 106.42 13.9336 17.5783 3.7046 
195 1 106.42 13.8551 15.7467 5.78365 
196 1 106.42 11.6205 17.4782 5.98153 
115 1 106.42 13.9896 19.5131 5.89577 
294 1 106.42 13.6694 17.5637 8.01313 
198 1 106.42 17.6201 17.7659 3.97267 
200 1 106.42 15.837 17.7252 5.90557 
119 1 106.42 17.7245 0.225698 5.99926 
298 1 106.42 17.6067 17.7284 7.71563 
281 1 106.42 0.0454275 15.7876 7.95708 
202 1 106.42 1.81334 2.24279 7.85799 
225 1 106.42 3.89508 3.90426 8.06241 
208 1 106.42 3.89354 1.98686 9.88083 
201 1 106.42 0.192251 0.29602 7.85998 
206 1 106.42 5.80033 1.96792 7.86367 
212 1 106.42 7.77266 2.05707 9.73608 
227 1 106.42 5.82112 4.07133 9.85209 
306 1 106.42 6.00062 2.04509 11.6904 
210 1 106.42 9.78983 1.95598 7.70241 
231 1 106.42 10.0516 3.8376 9.88925 
216 1 106.42 11.8885 1.71934 9.63508 
314 1 106.42 13.7574 1.95049 11.8118 
220 1 106.42 15.59 1.46482 9.96692 
235 1 106.42 13.8569 3.5851 9.95762 
218 1 106.42 17.5092 1.91106 7.73955 
204 1 106.42 0.11506 2.03183 9.87479 
318 1 106.42 17.8637 1.5572 11.7341 
239 1 106.42 17.2979 3.65024 9.90456 
223 1 106.42 1.72948 4.19268 9.79963 
322 1 106.42 1.92925 6.21356 11.7793 
228 1 106.42 3.81252 5.92773 9.95455 
247 1 106.42 5.56988 7.65696 9.83819 
249 1 106.42 7.68454 7.78155 7.90759 
232 1 106.42 7.81716 5.89261 9.98695 
230 1 106.42 9.72265 5.86914 8.25435 
251 1 106.42 9.49777 7.84388 10.1115 
337 1 106.42 15.6014 4.10938 11.8173 
236 1 106.42 11.7749 5.75203 10.0597 
234 1 106.42 13.9101 5.89864 7.50055 
240 1 106.42 15.3751 5.81479 9.62903 
255 1 106.42 13.5793 7.85095 9.87678 
238 1 106.42 17.4001 6.12406 7.82078 
221 1 106.42 19.255 3.82767 7.74644 
321 1 106.42 19.5849 3.90756 11.8603 
224 1 106.42 19.264 6.03579 9.72467 
259 1 106.42 17.5177 8.11122 9.67201 
338 1 106.42 17.2674 6.33201 11.5487 
243 1 106.42 1.89902 7.84364 9.52981 
245 1 106.42 4.09917 7.85854 7.8254 
242 1 106.42 1.93204 9.82914 7.7414 
241 1 106.42 19.5117 7.80794 7.83034 
244 1 106.42 0.0765665 10.0407 10.0868 
248 1 106.42 3.89493 9.8263 9.87349 
346 1 106.42 5.68531 9.76308 12.09 
252 1 106.42 7.63791 9.61891 9.94422 
369 1 106.42 7.91964 11.859 11.9364 
271 1 106.42 9.38839 11.6932 9.86285 
350 1 106.42 9.58705 9.6959 11.8404 
269 1 106.42 7.63516 11.6277 7.67726 
256 1 106.42 11.5401 9.81969 9.707 
349 1 106.42 7.6005 7.52096 11.7891 
373 1 106.42 11.5769 11.595 11.4043 
254 1 106.42 13.7848 9.90963 7.86077 
354 1 106.42 13.7101 9.85744 11.7165 
357 1 106.42 15.4019 8.05486 11.6501 
260 1 106.42 15.7983 10.2143 9.95289 
258 1 106.42 17.7408 9.96968 7.87875 
257 1 106.42 15.5759 7.87197 8.20671 
358 1 106.42 17.7868 10.0309 11.8339 
265 1 106.42 3.97772 11.6299 8.06496 
263 1 106.42 1.93317 11.9408 10.0585 
262 1 106.42 2.05217 13.5685 7.83874 
268 1 106.42 3.88476 13.8928 9.9243 
283 1 106.42 1.93534 15.6859 9.50782 
266 1 106.42 5.8311 13.8349 8.04898 
267 1 106.42 6.14945 11.8138 10.0972 
287 1 106.42 5.796 16.0397 9.92069 
272 1 106.42 8.08427 13.6221 9.53748 
291 1 106.42 9.87411 15.7873 9.62008 
370 1 106.42 9.5437 13.8234 11.7143 
276 1 106.42 11.5216 13.8281 9.61045 
275 1 106.42 13.5887 11.6531 9.5076 
295 1 106.42 13.6314 15.7819 9.73161 
374 1 106.42 13.4617 13.8583 11.6429 
297 1 106.42 15.852 15.6484 8.02875 
278 1 106.42 18.2182 13.7483 7.63311 
279 1 106.42 17.782 12.1467 10.1655 
264 1 106.42 0.110159 13.8845 10.0605 
280 1 106.42 15.5716 13.7335 9.89232 
203 1 106.42 2.31727 19.5898 9.75175 
288 1 106.42 3.77712 17.7176 10.0577 
284 1 106.42 0.214563 17.7163 9.79961 
385 1 106.42 3.75517 15.8529 11.7116 
207 1 106.42 5.8518 19.7221 9.91617 
289 1 106.42 7.55786 15.9825 7.7661 
292 1 106.42 7.91093 17.8969 9.55202 
386 1 106.42 5.93832 17.5929 11.7462 
389 1 106.42 7.87717 15.7073 11.5109 
211 1 106.42 9.7222 0.218159 9.63355 
296 1 106.42 11.6885 17.6908 9.82516 
309 1 106.42 7.90775 19.4877 11.8303 
217 1 106.42 15.6641 19.5472 7.94256 
393 1 106.42 11.8057 15.6414 11.7837 
313 1 106.42 11.8117 0.252454 11.8155 
215 1 106.42 13.7418 19.476 9.79697 
394 1 106.42 13.9125 17.7056 11.946 
317 1 106.42 15.5898 19.5263 11.9253 
219 1 106.42 17.8796 19.5173 9.77391 
300 1 106.42 15.6597 17.4767 9.84992 
299 1 106.42 17.5576 15.5399 10.007 
398 1 106.42 17.5597 17.7248 11.9975 
302 1 106.42 2.04093 2.01709 11.5574 
305 1 106.42 4.09581 0.0817253 11.9868 
303 1 106.42 1.85321 0.183177 13.8827 
325 1 106.42 3.86402 3.91898 11.8032 
308 1 106.42 3.67848 2.14506 13.4861 
323 1 106.42 1.70588 3.947 13.5892 
405 1 106.42 3.89951 0.176616 15.7937 
327 1 106.42 5.74743 3.85018 13.7277 
307 1 106.42 5.70364 0.0766276 13.8939 
312 1 106.42 7.70789 1.69614 13.731 
409 1 106.42 7.61802 0.113304 15.5637 
310 1 106.42 9.77307 1.88605 11.7254 
410 1 106.42 9.61672 2.03467 15.9787 
311 1 106.42 9.72802 0.309956 13.7141 
316 1 106.42 11.7089 2.03805 13.9117 
315 1 106.42 13.8231 19.5375 13.9766 
320 1 106.42 15.8351 2.1848 13.5961 
335 1 106.42 13.8717 3.97298 13.7732 
304 1 106.42 19.4057 1.94342 13.7579 
319 1 106.42 17.4959 19.5865 14.1278 
339 1 106.42 17.5673 3.96182 13.4262 
418 1 106.42 17.4044 1.99005 15.7018 
328 1 106.42 3.95105 5.75488 13.6243 
445 1 106.42 3.95689 7.60627 15.6114 
422 1 106.42 1.92359 5.98463 15.6201 
345 1 106.42 4.15541 7.78581 11.8473 
343 1 106.42 2.07052 7.72752 13.8889 
326 1 106.42 5.99824 5.74758 11.8967 
347 1 106.42 5.84023 7.69013 13.9246 
449 1 106.42 7.9441 7.95965 15.6593 
329 1 106.42 7.97901 3.64897 12.0014 
332 1 106.42 7.82712 5.94069 13.892 
333 1 106.42 12.0556 3.79112 11.9774 
330 1 106.42 9.86069 5.68616 11.8863 
331 1 106.42 10.0029 3.92448 13.8651 
351 1 106.42 9.66442 7.83787 13.5159 
334 1 106.42 13.7574 5.83723 11.8241 
336 1 106.42 11.6717 5.84642 13.8509 
340 1 106.42 15.9072 6.01116 13.7923 
437 1 106.42 16.0702 4.14235 15.7055 
324 1 106.42 19.4811 5.84664 13.5129 
441 1 106.42 -0.0255839 7.77085 15.5377 
341 1 106.42 19.5967 7.82102 11.5362 
342 1 106.42 2.08288 9.58023 11.9054 
363 1 106.42 2.16325 11.6723 13.7193 
348 1 106.42 3.92432 9.66029 13.9458 
367 1 106.42 5.59796 11.9058 13.7292 
352 1 106.42 7.67808 9.56607 13.533 
446 1 106.42 6.12151 9.76059 15.7049 
371 1 106.42 9.80536 11.8655 13.5198 
450 1 106.42 9.77479 9.95141 15.5373 
356 1 106.42 11.8488 9.60064 13.9388 
353 1 106.42 11.6753 7.93095 11.9076 
355 1 106.42 13.6735 7.74877 13.7354 
375 1 106.42 13.4103 12.0736 13.667 
360 1 106.42 15.6507 9.7808 13.5587 
453 1 106.42 11.7972 7.84302 15.7281 
477 1 106.42 15.8234 11.7998 15.6023 
359 1 106.42 17.5729 7.98263 13.4751 
344 1 106.42 0.323389 9.84944 13.8209 
458 1 106.42 17.5197 9.61448 15.4314 
362 1 106.42 2.08954 14.0869 12.0252 
462 1 106.42 2.28551 13.6578 15.4972 
361 1 106.42 0.00372721 11.8261 12.1068 
461 1 106.42 -0.00245277 11.8716 15.5382 
368 1 106.42 4.03092 13.9871 13.7895 
365 1 106.42 4.0146 11.7695 11.5562 
366 1 106.42 6.00071 14.0223 11.6021 
466 1 106.42 6.0541 13.5802 15.718 
485 1 106.42 4.11019 15.6444 15.5452 
372 1 106.42 7.73653 13.5954 13.5663 
376 1 106.42 11.6295 13.7578 13.6197 
391 1 106.42 9.90648 15.6845 13.4339 
493 1 106.42 11.66 15.7717 15.4661 
377 1 106.42 15.4439 12.1158 12.0717 
474 1 106.42 13.4241 13.7819 15.739 
378 1 106.42 17.5784 13.8412 11.9068 
379 1 106.42 17.6077 11.5759 13.5861 
364 1 106.42 19.4799 13.9546 13.8413 
380 1 106.42 15.5396 13.7668 13.9787 
301 1 106.42 0.150937 19.5059 12.0155 
383 1 106.42 1.94699 16.015 13.8243 
382 1 106.42 1.92393 17.9747 12.0426 
381 1 106.42 0.109087 15.994 11.8061 
387 1 106.42 5.78945 15.7719 13.4413 
388 1 106.42 3.77921 17.6669 13.8065 
486 1 106.42 5.73795 17.5769 15.5003 
392 1 106.42 7.80868 17.7911 13.7045 
489 1 106.42 7.78842 15.5545 15.3703 
390 1 106.42 9.79255 17.7074 11.4131 
490 1 106.42 9.9596 17.7951 15.467 
397 1 106.42 15.2979 15.5923 11.6528 
396 1 106.42 11.7557 17.8671 13.4787 
395 1 106.42 13.5639 15.5702 13.9622 
400 1 106.42 15.471 17.6382 14.0689 
497 1 106.42 15.5796 15.7228 15.8236 
384 1 106.42 19.3811 17.6162 13.9804 
399 1 106.42 17.6899 15.815 13.4782 
402 1 106.42 1.73127 2.39226 15.9273 
2 1 106.42 1.93038 2.00788 19.5869 
403 1 106.42 2.06957 0.0666643 17.6766 
408 1 106.42 3.61386 2.26369 17.7239 
1 1 106.42 -0.0220683 0.132691 19.7141 
6 1 106.42 5.71823 1.80766 19.5392 
406 1 106.42 5.7706 2.04358 15.8155 
412 1 106.42 7.73303 1.76913 17.8605 
427 1 106.42 5.93608 3.98247 17.7329 
10 1 106.42 9.5274 1.91837 0.029353 
433 1 106.42 12.0289 3.92711 15.8468 
431 1 106.42 9.85744 3.91984 17.5785 
413 1 106.42 11.6858 0.218 15.5632 
414 1 106.42 13.6125 1.85366 15.8716 
14 1 106.42 13.7086 1.95443 19.6749 
416 1 106.42 11.6022 1.95339 17.8695 
33 1 106.42 11.8276 3.60438 0.0992578 
21 1 106.42 -0.0148918 4.07335 0.159626 
18 1 106.42 17.6992 2.24014 0.12107 
417 1 106.42 15.5373 0.166205 15.7604 
420 1 106.42 15.6239 1.92578 17.86 
404 1 106.42 19.588 2.13365 17.7095 
419 1 106.42 17.463 0.21858 17.873 
423 1 106.42 2.09772 4.62701 17.7414 
425 1 106.42 3.94564 3.90309 15.6267 
443 1 106.42 1.99698 7.82612 17.6801 
426 1 106.42 5.79066 5.69166 15.8494 
428 1 106.42 3.98142 6.2047 18.0273 
429 1 106.42 7.86789 3.63414 15.6708 
447 1 106.42 6.2847 7.88838 17.9004 
29 1 106.42 8.02395 4.22455 0.214241 
432 1 106.42 7.85723 5.66974 17.6554 
30 1 106.42 10.1058 6.06018 0.093861 
430 1 106.42 9.86393 6.01457 15.7163 
436 1 106.42 11.8297 6.17912 17.6931 
435 1 106.42 14.0185 3.9407 17.541 
34 1 106.42 13.8034 5.96341 0.410508 
434 1 106.42 13.8283 5.83668 15.5727 
438 1 106.42 17.7797 6.15803 15.8136 
424 1 106.42 -0.0781809 6.04738 17.7382 
440 1 106.42 15.7275 5.96399 17.8169 
501 2 1.01 17.831 8.12869 19.7065 
421 1 106.42 19.5446 4.16605 15.6099 
439 1 106.42 17.6429 4.04697 17.723 
61 1 106.42 -0.0578946 11.5781 19.5446 
442 1 106.42 2.04783 9.73917 15.7183 
444 1 106.42 0.0694979 9.8258 17.2582 
463 1 106.42 2.26562 11.7111 17.5555 
448 1 106.42 4.2013 9.64422 17.5653 
465 1 106.42 3.9989 11.6846 15.705 
469 1 106.42 7.96918 11.9611 15.673 
65 1 106.42 4.09363 11.8317 19.76 
467 1 106.42 5.97836 11.5178 17.4476 
50 1 106.42 9.90506 9.51503 19.522 
452 1 106.42 7.964 10.0611 17.5346 
473 1 106.42 11.819 11.7984 15.7592 
451 1 106.42 9.57369 7.51532 17.5649 
456 1 106.42 11.75 9.73139 17.7033 
73 1 106.42 11.775 11.7939 19.6541 
454 1 106.42 14.0275 9.85307 15.6671 
455 1 106.42 13.8269 7.81842 17.9247 
457 1 106.42 15.8083 7.82773 15.6678 
460 1 106.42 15.9157 9.62898 17.8005 
459 1 106.42 17.8886 7.94106 17.661 
77 1 106.42 16.0807 11.9821 19.5405 
81 1 106.42 0.0199253 15.8911 19.3706 
62 1 106.42 2.10605 13.8463 19.618 
483 1 106.42 2.117 15.5752 17.5587 
464 1 106.42 0.08776 13.6233 17.552 
468 1 106.42 4.10328 13.5198 17.5596 
472 1 106.42 8.10223 13.8255 17.5772 
487 1 106.42 5.95636 15.7212 17.4107 
470 1 106.42 9.80821 13.5721 15.617 
471 1 106.42 9.99941 11.6699 17.631 
70 1 106.42 9.76548 13.8082 0.0865659 
476 1 106.42 11.7957 13.6895 17.6661 
97 1 106.42 15.3881 15.5398 19.5446 
74 1 106.42 13.6326 13.4818 0.126208 
475 1 106.42 13.9216 11.6091 17.4015 
480 1 106.42 15.7687 13.6487 17.4135 
495 1 106.42 13.4761 15.5575 17.5986 
478 1 106.42 17.7123 13.8701 15.63 
78 1 106.42 17.7643 13.6418 19.3489 
479 1 106.42 17.5635 11.5486 17.0881 
482 1 106.42 1.90558 17.9566 15.7777 
488 1 106.42 3.82206 17.608 17.7079 
484 1 106.42 0.191857 17.8657 17.7315 
407 1 106.42 5.55825 0.254904 17.7991 
86 1 106.42 5.98913 17.5691 19.6575 
492 1 106.42 7.74279 17.7451 17.2325 
90 1 106.42 9.56604 17.434 19.4529 
93 1 106.42 11.5302 15.7209 19.4642 
89 1 106.42 7.61398 15.7286 -0.0789396 
411 1 106.42 9.90192 19.5593 17.4422 
491 1 106.42 9.81945 15.6845 17.3937 
13 1 106.42 11.4028 19.539 19.6557 
496 1 106.42 11.3871 17.5423 17.5765 
94 1 106.42 13.5547 17.408 19.4813 
494 1 106.42 13.5933 17.6431 16.0371 
415 1 106.42 13.5315 0.0726231 17.9094 
500 1 106.42 15.5247 17.567 17.5747 
98 1 106.42 17.9094 17.7451 19.5307 
498 1 106.42 17.5077 17.7327 16.0461 
481 1 106.42 19.7995 15.7087 15.7408 
401 1 106.42 19.2474 0.100115 15.8006 
499 1 106.42 17.3747 15.7045 17.8665 
