ITEM: TIMESTEP
38500
ITEM: NUMBER OF ATOMS
501
ITEM: BOX BOUNDS pp pp pp
0.0000000000000000e+00 1.9629018200000001e+01
0.0000000000000000e+00 1.9629018200000001e+01
0.0000000000000000e+00 1.9629018200000001e+01
ITEM: ATOMS id type mass x y z 
3 1 106.42 1.86305 0.0282466 1.61589 
8 1 106.42 3.79155 2.06681 2.03956 
125 1 106.42 3.74555 3.86068 4.06031 
4 1 106.42 0.122089 2.22872 2.12174 
102 1 106.42 1.96067 1.98241 3.79256 
2 1 106.42 1.84579 2.10031 0.14506 
27 1 106.42 5.85218 3.873 1.98644 
12 1 106.42 7.69093 1.88594 1.811 
109 1 106.42 7.72318 0.0880166 3.69938 
6 1 106.42 5.91197 2.06104 0.259911 
16 1 106.42 11.5958 2.06258 1.86169 
31 1 106.42 9.59597 3.86445 2.0134 
110 1 106.42 9.90298 1.85171 3.91292 
20 1 106.42 15.6913 1.88518 1.93096 
35 1 106.42 13.535 3.84942 1.99146 
114 1 106.42 13.7528 1.8747 3.64417 
14 1 106.42 13.3454 1.77125 -0.0471831 
137 1 106.42 15.7231 3.96548 3.7488 
118 1 106.42 17.5844 1.80481 3.42269 
18 1 106.42 17.7015 2.02534 0.0842732 
23 1 106.42 1.76714 4.34428 2.22537 
22 1 106.42 2.22069 6.12625 -0.0476631 
24 1 106.42 0.185967 6.4384 2.08676 
21 1 106.42 0.279234 4.33162 0.0488394 
43 1 106.42 2.29883 7.64315 2.04179 
28 1 106.42 3.99246 5.69934 2.11507 
26 1 106.42 5.94813 5.91809 0.148756 
47 1 106.42 5.84853 7.70253 2.09057 
32 1 106.42 7.76263 5.90138 1.96038 
126 1 106.42 6.17246 5.64673 3.74101 
33 1 106.42 11.5854 4.18637 0.161636 
51 1 106.42 9.75837 7.76026 2.19083 
30 1 106.42 9.88669 5.95038 0.386502 
133 1 106.42 11.5577 3.7801 3.85012 
36 1 106.42 11.8364 6.01157 1.99083 
34 1 106.42 13.9244 5.91141 0.207815 
37 1 106.42 15.5794 4.00882 0.373874 
40 1 106.42 16.0414 5.93849 1.94355 
39 1 106.42 17.7879 4.14894 1.82759 
38 1 106.42 17.8717 6.05408 -0.0198311 
57 1 106.42 15.9814 7.64016 0.110848 
59 1 106.42 17.8064 7.92131 2.30784 
138 1 106.42 17.7066 5.75737 3.91948 
48 1 106.42 3.81335 9.67729 1.90736 
165 1 106.42 3.86306 11.6269 3.58054 
161 1 106.42 0.123955 11.5438 3.63117 
45 1 106.42 4.14671 7.99627 0.0628116 
146 1 106.42 5.85008 9.5687 3.83603 
67 1 106.42 5.89864 11.717 1.88682 
52 1 106.42 7.7144 9.63959 1.79939 
150 1 106.42 9.97462 9.91748 3.63849 
56 1 106.42 11.6766 9.80236 1.95248 
55 1 106.42 13.7549 8.13769 2.05374 
75 1 106.42 14.1043 11.6935 1.8667 
44 1 106.42 19.5546 9.70854 1.6801 
60 1 106.42 15.8072 9.86053 2.14559 
58 1 106.42 17.6004 9.66623 0.0815059 
63 1 106.42 1.85747 11.8451 1.91249 
68 1 106.42 3.87474 14.0087 1.75359 
62 1 106.42 1.84006 13.8723 0.0140786 
64 1 106.42 0.168433 13.6198 1.99856 
87 1 106.42 6.17573 15.4578 1.94306 
72 1 106.42 7.67951 13.6774 1.96043 
65 1 106.42 3.96332 11.8018 0.160602 
166 1 106.42 5.79528 13.4229 3.83421 
71 1 106.42 9.72918 11.75 1.71562 
76 1 106.42 11.79 13.4307 2.10999 
70 1 106.42 9.60727 13.6582 0.042399 
91 1 106.42 9.80225 15.3797 1.90055 
170 1 106.42 9.9433 13.3356 3.9496 
93 1 106.42 11.6237 15.4598 0.192107 
95 1 106.42 13.5328 15.6318 1.93535 
174 1 106.42 13.821 13.6703 3.78555 
73 1 106.42 11.8585 11.7777 0.0215409 
80 1 106.42 15.8771 14.1341 1.95495 
79 1 106.42 17.5785 11.9064 1.74539 
197 1 106.42 15.9304 15.6205 3.92637 
105 1 106.42 4.06904 19.3971 3.71863 
83 1 106.42 1.86058 15.9651 1.8531 
182 1 106.42 2.00595 17.692 3.9242 
88 1 106.42 4.09375 17.7703 1.78963 
185 1 106.42 4.00025 15.8052 3.57043 
7 1 106.42 6.04799 19.5501 1.92928 
186 1 106.42 6.1428 17.6409 3.84723 
92 1 106.42 7.7828 17.45 1.78139 
11 1 106.42 9.71098 19.6079 2.18014 
96 1 106.42 11.6414 17.6033 1.79522 
13 1 106.42 11.629 19.3947 0.0612946 
190 1 106.42 9.59908 17.5129 3.69506 
15 1 106.42 13.679 19.521 1.97263 
117 1 106.42 15.648 19.4661 3.57876 
113 1 106.42 12.0858 19.1131 3.84046 
194 1 106.42 13.9045 17.4437 4.02722 
94 1 106.42 13.4814 17.8209 0.155916 
19 1 106.42 17.5204 19.5458 1.7123 
99 1 106.42 18.1677 15.7463 2.25901 
100 1 106.42 15.7551 17.4424 1.42258 
84 1 106.42 19.4618 17.8052 1.7886 
198 1 106.42 17.5303 17.6802 3.88744 
108 1 106.42 3.75416 1.77597 5.66547 
104 1 106.42 0.217638 1.98086 5.96321 
202 1 106.42 2.14849 1.95741 7.80434 
106 1 106.42 5.80291 2.15743 3.98088 
127 1 106.42 6.05906 3.94611 5.74862 
107 1 106.42 5.80237 0.274079 5.67004 
209 1 106.42 7.63726 0.263945 7.55544 
206 1 106.42 5.91642 2.29508 7.722 
112 1 106.42 8.18653 2.14946 5.85444 
210 1 106.42 9.85121 1.8607 7.64039 
129 1 106.42 8.07889 3.69743 4.01874 
116 1 106.42 11.9073 1.8725 5.60623 
135 1 106.42 13.9103 3.56391 5.65112 
214 1 106.42 14.2042 2.05461 7.83267 
213 1 106.42 11.9036 0.172807 7.7122 
120 1 106.42 16.0012 1.90543 5.56437 
101 1 106.42 19.4884 0.171396 4.06776 
121 1 106.42 19.4737 3.83972 4.11016 
122 1 106.42 2.14252 5.90602 4.0791 
123 1 106.42 2.11195 3.94063 6.07742 
124 1 106.42 -0.00354984 5.76418 5.87333 
143 1 106.42 1.9429 7.7348 6.09319 
222 1 106.42 1.64138 5.92637 7.72229 
128 1 106.42 4.26297 5.58873 5.78993 
145 1 106.42 4.11229 7.73198 4.26315 
147 1 106.42 5.98946 7.58528 5.80825 
245 1 106.42 4.06794 7.32926 7.50215 
131 1 106.42 10.0776 3.89024 6.19477 
132 1 106.42 7.9049 5.80923 5.96451 
149 1 106.42 8.17868 7.87688 4.20785 
130 1 106.42 9.98905 5.90307 4.17619 
136 1 106.42 11.6902 5.85251 6.22319 
134 1 106.42 13.646 5.74583 3.9449 
234 1 106.42 13.6744 5.74292 7.68186 
140 1 106.42 15.5696 5.84913 5.56259 
139 1 106.42 17.5642 4.0805 5.86347 
159 1 106.42 17.539 7.76273 5.66157 
141 1 106.42 0.0110901 8.12275 4.12292 
142 1 106.42 2.08668 9.67722 4.19776 
242 1 106.42 2.11572 9.69891 7.7563 
148 1 106.42 4.01611 9.76055 6.19659 
152 1 106.42 7.83823 9.54891 5.99994 
167 1 106.42 5.71994 11.6434 6.18246 
151 1 106.42 9.91801 7.88399 5.95666 
169 1 106.42 7.87425 11.6 4.01687 
171 1 106.42 9.61465 11.4741 5.85733 
250 1 106.42 9.64219 9.87826 7.89739 
154 1 106.42 13.7934 10.0961 4.27556 
173 1 106.42 11.8994 11.6061 4.04024 
153 1 106.42 11.8036 7.90445 3.87907 
155 1 106.42 13.4957 7.761 5.69964 
156 1 106.42 11.8634 9.96172 6.22323 
157 1 106.42 15.6271 8.04881 3.9314 
241 1 106.42 19.4784 8.06828 7.91227 
144 1 106.42 19.6385 10.0496 5.83418 
158 1 106.42 17.474 9.88212 4.22878 
160 1 106.42 15.7739 9.69308 6.16891 
162 1 106.42 2.1531 13.7965 3.91923 
163 1 106.42 1.79328 11.7304 5.83048 
164 1 106.42 0.167918 13.7079 5.93911 
285 1 106.42 4.08268 15.6734 7.79435 
262 1 106.42 2.00595 13.6879 7.87382 
181 1 106.42 0.18943 15.6483 3.98663 
168 1 106.42 3.87406 13.6429 5.9226 
172 1 106.42 7.83127 13.5979 5.72963 
187 1 106.42 5.58085 15.6361 5.40988 
189 1 106.42 7.91561 15.501 4.07853 
191 1 106.42 9.88807 15.8034 5.89118 
270 1 106.42 9.68513 13.5645 7.60126 
176 1 106.42 11.7095 13.5617 5.87834 
175 1 106.42 13.846 12.0936 5.96516 
180 1 106.42 15.7903 13.5107 6.09674 
293 1 106.42 11.825 15.5468 7.65488 
178 1 106.42 18.0179 13.8279 4.34275 
177 1 106.42 15.7997 11.8735 3.97887 
179 1 106.42 17.8113 11.8895 6.20247 
278 1 106.42 17.7327 13.7091 7.96509 
297 1 106.42 15.7885 15.6481 7.79665 
103 1 106.42 2.00671 19.4518 5.85228 
183 1 106.42 2.12186 15.923 5.65097 
282 1 106.42 2.04235 17.7391 7.85247 
184 1 106.42 0.147263 17.5801 5.70518 
188 1 106.42 4.02753 17.6429 5.65361 
286 1 106.42 5.8365 17.8591 7.67506 
192 1 106.42 7.55637 17.7673 5.83681 
289 1 106.42 7.91369 15.7767 7.66424 
111 1 106.42 9.94613 19.643 5.80964 
290 1 106.42 9.62835 17.9975 7.51719 
196 1 106.42 11.8543 17.6285 5.85654 
193 1 106.42 11.744 15.7459 4.18587 
195 1 106.42 13.8803 15.7035 6.18848 
115 1 106.42 13.762 19.6123 5.72279 
294 1 106.42 13.8795 17.8901 7.63539 
119 1 106.42 17.7761 19.4138 5.91105 
199 1 106.42 17.6561 15.8181 6.15539 
200 1 106.42 15.7731 17.6579 5.98128 
217 1 106.42 15.9429 19.5392 7.73105 
203 1 106.42 1.74415 0.377191 9.67401 
302 1 106.42 2.16099 2.06204 11.5729 
205 1 106.42 4.18705 0.202752 7.9477 
229 1 106.42 7.93335 3.86879 7.77467 
208 1 106.42 4.09873 2.0403 9.79727 
207 1 106.42 6.005 0.0706707 9.66725 
227 1 106.42 5.99965 3.63454 10.0107 
212 1 106.42 7.94592 1.84533 9.82595 
211 1 106.42 9.76601 -0.0809212 9.53195 
310 1 106.42 9.81203 1.90987 11.5406 
216 1 106.42 11.7694 1.9553 9.87829 
233 1 106.42 12.1455 3.66606 7.79989 
235 1 106.42 13.8038 3.77648 9.88922 
218 1 106.42 17.5233 2.07336 8.0106 
204 1 106.42 19.3445 1.79777 9.85582 
220 1 106.42 15.8343 1.98482 9.8786 
225 1 106.42 3.72405 3.98999 8.01311 
223 1 106.42 1.41044 3.81084 9.80371 
322 1 106.42 1.78152 5.90068 11.7334 
228 1 106.42 3.50918 6.00583 9.64653 
325 1 106.42 3.5983 4.23079 11.5539 
226 1 106.42 6.03262 5.68569 7.86312 
247 1 106.42 5.57237 7.69457 9.91683 
249 1 106.42 7.56496 7.74232 7.91798 
232 1 106.42 7.69988 5.88032 9.89567 
231 1 106.42 9.70025 4.04577 9.7318 
253 1 106.42 11.6713 8.03137 8.11553 
230 1 106.42 9.8369 6.1179 8.04767 
353 1 106.42 11.6103 7.68107 11.6975 
237 1 106.42 15.6411 4.17279 8.0741 
236 1 106.42 12.0407 5.85944 9.46046 
240 1 106.42 15.5025 5.78149 10.0921 
221 1 106.42 19.3269 4.06488 7.86025 
238 1 106.42 17.3906 6.13017 7.9285 
239 1 106.42 17.7088 4.08233 9.9631 
224 1 106.42 19.4448 5.93248 9.64534 
338 1 106.42 17.6469 5.97896 11.4854 
261 1 106.42 0.204563 11.6271 7.97047 
243 1 106.42 1.7145 7.94188 9.7288 
244 1 106.42 -0.0842224 10.015 9.86715 
248 1 106.42 3.62752 9.63817 9.92675 
263 1 106.42 2.05339 11.6616 9.4732 
342 1 106.42 1.79423 9.84236 11.7486 
246 1 106.42 5.92333 9.54323 8.10114 
252 1 106.42 7.56787 9.47545 10.0712 
267 1 106.42 5.99606 11.6191 9.6175 
251 1 106.42 9.73691 7.86223 10.004 
271 1 106.42 9.79147 11.4792 9.73293 
256 1 106.42 11.6228 9.69217 9.86453 
257 1 106.42 15.4266 7.84653 7.84522 
255 1 106.42 13.5898 8.06129 9.90672 
254 1 106.42 13.5546 9.86683 8.00842 
357 1 106.42 15.5786 7.7816 11.717 
260 1 106.42 15.4951 10.0303 9.99467 
341 1 106.42 19.5705 7.89151 11.6671 
259 1 106.42 17.5174 8.32013 9.69433 
258 1 106.42 17.8818 10.012 8.00542 
277 1 106.42 15.855 11.6091 7.89956 
268 1 106.42 3.82449 14.1812 9.72115 
264 1 106.42 0.100307 13.9011 9.94743 
365 1 106.42 3.8782 12.0286 11.3623 
281 1 106.42 0.1998 15.5994 7.96478 
265 1 106.42 4.04814 11.9348 8.03046 
266 1 106.42 5.87473 14.0222 7.96499 
366 1 106.42 5.86341 13.7835 11.3172 
269 1 106.42 7.97236 11.856 8.06281 
373 1 106.42 11.7957 11.9996 11.7247 
273 1 106.42 11.6179 11.7595 7.87509 
272 1 106.42 7.94512 14.015 9.76761 
370 1 106.42 10.0131 13.8845 11.5462 
276 1 106.42 11.6867 13.6586 9.71395 
275 1 106.42 13.7102 11.8343 10.0068 
274 1 106.42 13.5394 13.6828 7.82496 
374 1 106.42 13.6282 13.7452 11.6799 
280 1 106.42 15.642 13.772 9.65145 
377 1 106.42 15.7293 11.785 11.6736 
279 1 106.42 17.7748 11.9043 9.97867 
201 1 106.42 -0.0128117 19.4772 7.70443 
283 1 106.42 2.08631 16.1987 9.96457 
288 1 106.42 4.01218 17.8754 9.84647 
381 1 106.42 0.000333381 15.9429 11.5761 
287 1 106.42 5.87329 15.9881 9.57252 
292 1 106.42 7.7173 17.7795 9.61013 
389 1 106.42 8.07768 15.9121 11.63 
291 1 106.42 9.78776 15.8183 9.49565 
296 1 106.42 11.6708 17.8394 9.58212 
390 1 106.42 9.63912 18.0519 11.6715 
393 1 106.42 11.5184 15.9728 11.5251 
295 1 106.42 13.613 15.8423 10.0123 
215 1 106.42 13.7593 19.5663 10.0616 
298 1 106.42 17.7484 17.5891 8.11932 
299 1 106.42 17.5481 15.7389 9.81663 
284 1 106.42 19.6127 17.7651 9.73984 
300 1 106.42 15.7613 17.859 10.0394 
219 1 106.42 17.6058 19.5688 9.90694 
303 1 106.42 1.83463 0.295685 13.8061 
308 1 106.42 3.88247 1.90215 13.7513 
402 1 106.42 1.97005 2.0977 15.5799 
306 1 106.42 5.70054 1.95212 11.9859 
327 1 106.42 5.88296 3.84995 13.8216 
307 1 106.42 5.74596 0.110858 13.7843 
312 1 106.42 7.81747 1.99748 13.8802 
309 1 106.42 7.73931 0.244351 11.8376 
406 1 106.42 5.87603 1.95383 15.7005 
313 1 106.42 11.5855 -0.0185112 11.9308 
311 1 106.42 9.67142 -0.0403584 13.7823 
331 1 106.42 9.7864 3.45624 13.5919 
429 1 106.42 7.98881 3.91156 15.7122 
316 1 106.42 11.9752 2.06633 14.0133 
314 1 106.42 13.7181 1.73232 12.112 
333 1 106.42 11.7543 3.66523 11.6604 
337 1 106.42 15.7203 3.76676 11.8937 
317 1 106.42 15.6183 -0.0865514 12.1412 
315 1 106.42 13.6721 -0.00331724 13.8666 
318 1 106.42 17.4578 2.0781 11.9327 
321 1 106.42 19.4878 3.6958 11.7724 
320 1 106.42 15.7062 1.79655 14.0093 
304 1 106.42 19.4957 1.90634 13.8086 
421 1 106.42 19.4218 3.59582 15.6751 
301 1 106.42 19.4054 0.0243577 11.81 
323 1 106.42 2.0474 4.06752 13.7355 
328 1 106.42 3.86184 5.96227 14.0285 
422 1 106.42 1.81186 5.85283 15.586 
343 1 106.42 1.87048 7.83787 13.7273 
324 1 106.42 0.103477 6.09346 13.546 
349 1 106.42 7.55827 7.73212 12.0827 
326 1 106.42 5.75913 5.65713 11.9364 
347 1 106.42 5.83024 7.86821 14.1072 
332 1 106.42 7.82597 5.71457 13.7848 
329 1 106.42 7.80346 4.05378 11.8415 
330 1 106.42 9.74032 5.81131 11.7884 
336 1 106.42 11.8367 5.87672 13.6121 
430 1 106.42 9.896 5.37594 15.3749 
351 1 106.42 9.84126 7.71735 13.9823 
334 1 106.42 13.5203 5.87151 11.8796 
335 1 106.42 13.8517 3.90354 13.8441 
355 1 106.42 13.8518 7.77573 13.6371 
434 1 106.42 13.9224 5.98843 15.7317 
457 1 106.42 15.6995 7.83064 15.6008 
339 1 106.42 17.732 4.02416 13.6759 
340 1 106.42 15.878 5.81439 13.7725 
359 1 106.42 17.8588 7.63824 13.814 
438 1 106.42 17.8498 5.84301 15.4909 
345 1 106.42 3.81308 7.81429 11.9931 
348 1 106.42 3.87375 9.60992 13.8373 
344 1 106.42 -0.0527558 9.72383 13.5594 
465 1 106.42 3.84094 11.6878 15.5756 
346 1 106.42 5.89183 9.85566 11.8755 
367 1 106.42 5.57017 11.6844 13.4954 
352 1 106.42 8.00047 9.98078 14.0294 
350 1 106.42 9.65976 9.80018 11.8445 
450 1 106.42 10.1414 9.83034 15.7312 
356 1 106.42 11.6246 9.75536 13.6126 
371 1 106.42 10.0078 11.6843 13.6515 
354 1 106.42 13.3459 9.87024 11.8437 
360 1 106.42 15.5963 9.92145 13.5795 
454 1 106.42 13.683 9.68968 15.4148 
375 1 106.42 13.5618 11.5648 13.6274 
358 1 106.42 17.5455 9.6361 11.8271 
458 1 106.42 17.7891 9.81958 15.3749 
363 1 106.42 2.26726 11.8445 13.4652 
362 1 106.42 1.94495 13.7933 11.5158 
462 1 106.42 1.94934 13.7303 15.6603 
361 1 106.42 0.146912 11.9599 11.7859 
364 1 106.42 0.235127 13.8043 13.7551 
383 1 106.42 1.89052 15.7126 13.7083 
368 1 106.42 4.06067 13.8352 13.6358 
372 1 106.42 7.75547 13.7669 13.7091 
387 1 106.42 5.98122 15.4765 13.6084 
369 1 106.42 7.60838 11.7561 11.8914 
376 1 106.42 11.6895 13.9817 13.5945 
469 1 106.42 8.04601 11.7945 15.3761 
470 1 106.42 9.96291 13.8214 15.4219 
397 1 106.42 15.7062 15.606 12.1092 
380 1 106.42 15.4137 13.9255 13.7985 
477 1 106.42 15.5053 11.829 15.5116 
473 1 106.42 11.8653 11.7567 15.4928 
379 1 106.42 17.7648 11.9167 13.7958 
378 1 106.42 17.53 13.7935 12.0515 
478 1 106.42 17.7929 13.6863 15.6473 
399 1 106.42 17.7222 15.56 14.1218 
385 1 106.42 4.00925 15.9178 12.0042 
382 1 106.42 1.88112 17.8749 11.917 
388 1 106.42 3.86569 17.7394 13.9235 
482 1 106.42 1.96217 17.9126 15.5281 
386 1 106.42 5.98168 17.7642 11.8372 
305 1 106.42 4.00578 19.6058 11.765 
392 1 106.42 7.56517 17.7358 13.8547 
489 1 106.42 7.8832 15.6916 15.6436 
391 1 106.42 9.42657 15.9383 13.7289 
490 1 106.42 9.53934 17.749 15.4755 
396 1 106.42 11.4763 17.5052 13.6367 
413 1 106.42 11.7644 19.3502 15.7077 
395 1 106.42 13.5119 15.7279 13.8115 
394 1 106.42 13.6164 17.6415 11.9897 
494 1 106.42 13.4625 17.6226 15.4759 
400 1 106.42 15.7508 17.407 13.8968 
398 1 106.42 17.4321 17.5871 11.8874 
319 1 106.42 17.5248 19.4472 13.7798 
384 1 106.42 19.5355 17.7208 13.8436 
5 1 106.42 3.97649 0.122473 19.5407 
1 1 106.42 0.0189293 0.0737669 19.4293 
403 1 106.42 1.86585 0.219119 17.6952 
408 1 106.42 3.98861 1.92025 17.5133 
25 1 106.42 3.48946 3.92396 19.5604 
404 1 106.42 0.0900297 2.34849 17.9579 
425 1 106.42 3.9241 4.01565 15.7354 
405 1 106.42 3.74449 0.0721272 15.9477 
412 1 106.42 7.88531 2.27264 17.7084 
407 1 106.42 6.05226 0.0375693 17.6266 
427 1 106.42 5.88559 3.79719 17.8681 
410 1 106.42 9.76173 1.91696 15.5983 
10 1 106.42 9.89416 1.8851 19.5542 
416 1 106.42 11.768 2.12367 17.445 
9 1 106.42 7.98924 0.154077 19.4757 
414 1 106.42 13.9829 2.16342 15.785 
420 1 106.42 15.5964 2.08112 17.8475 
435 1 106.42 13.5696 3.85239 18.161 
17 1 106.42 15.5395 0.0813769 19.489 
418 1 106.42 17.5445 1.83345 15.983 
419 1 106.42 17.6971 -0.000970801 17.5454 
401 1 106.42 19.735 0.444296 15.8759 
437 1 106.42 15.5567 3.85849 15.8231 
423 1 106.42 2.1329 4.04258 17.5265 
443 1 106.42 2.02334 7.79826 17.6525 
424 1 106.42 0.224254 5.62153 17.5061 
445 1 106.42 4.14848 7.81574 16.0051 
426 1 106.42 5.93896 5.78657 15.7761 
428 1 106.42 4.32209 5.92564 17.9728 
432 1 106.42 7.90881 5.93566 17.6695 
49 1 106.42 7.98917 7.64475 19.5412 
29 1 106.42 8.06231 3.89622 19.4551 
453 1 106.42 11.6941 7.56342 15.9865 
431 1 106.42 9.78219 4.16129 17.6813 
451 1 106.42 10.0089 7.71434 17.8981 
449 1 106.42 8.04258 7.7062 15.8211 
436 1 106.42 11.9775 5.68018 17.9664 
433 1 106.42 11.9497 4.12826 15.8446 
455 1 106.42 13.8976 7.39655 17.4964 
440 1 106.42 15.7902 5.63502 17.7044 
439 1 106.42 17.7303 3.88897 17.7167 
459 1 106.42 17.5891 7.6738 17.5752 
441 1 106.42 0.178796 7.97782 15.7562 
42 1 106.42 1.90474 10.0816 19.5157 
41 1 106.42 0.311662 7.92373 19.4675 
442 1 106.42 1.90811 9.89884 15.721 
444 1 106.42 0.0119882 9.79795 17.7173 
448 1 106.42 3.89126 10.0192 17.7078 
46 1 106.42 5.91703 9.66585 19.3169 
447 1 106.42 6.04923 7.99579 17.4692 
446 1 106.42 6.10161 10.0731 15.8489 
69 1 106.42 7.83597 11.6775 19.5697 
50 1 106.42 9.97128 9.75128 19.6951 
452 1 106.42 8.28028 9.61521 17.6128 
471 1 106.42 9.96497 11.675 17.7763 
53 1 106.42 11.9496 7.93179 19.4799 
54 1 106.42 13.7421 9.72548 19.5931 
456 1 106.42 12.1325 9.78173 17.4021 
475 1 106.42 13.8093 11.6493 17.78 
501 2 1.01 17.7741 8.03024 19.5834 
460 1 106.42 15.7169 9.57346 17.4934 
479 1 106.42 17.7754 11.5383 17.8432 
77 1 106.42 15.6561 11.5809 19.4125 
461 1 106.42 0.218381 11.805 15.6215 
485 1 106.42 3.7871 15.7526 15.9482 
463 1 106.42 1.75214 12.0218 17.6962 
61 1 106.42 -0.0280668 12.0351 19.4652 
483 1 106.42 2.34409 15.7531 17.8884 
464 1 106.42 0.0255231 13.8932 17.5711 
468 1 106.42 3.79693 13.6067 17.7307 
81 1 106.42 0.0735313 15.607 19.5334 
467 1 106.42 5.9481 11.9394 17.7431 
66 1 106.42 5.86485 13.8311 19.3333 
466 1 106.42 5.78487 13.9437 15.7444 
89 1 106.42 7.87135 15.4845 19.6212 
472 1 106.42 7.94699 13.4642 17.5106 
476 1 106.42 11.5596 13.661 17.7963 
491 1 106.42 9.60308 15.4979 17.6108 
74 1 106.42 13.6074 13.8948 19.4454 
474 1 106.42 13.7231 13.764 15.9935 
97 1 106.42 15.5429 15.4579 19.4276 
480 1 106.42 15.6766 13.6716 17.7772 
78 1 106.42 17.7601 13.9551 19.6522 
497 1 106.42 15.7237 15.5461 15.9694 
82 1 106.42 1.88506 17.771 19.3601 
481 1 106.42 0.444789 15.8219 15.9667 
86 1 106.42 6.04937 17.7881 19.4901 
409 1 106.42 7.87744 19.7098 16.0278 
486 1 106.42 5.77251 17.796 15.8372 
85 1 106.42 4.32827 15.838 19.6339 
488 1 106.42 4.16254 17.8388 17.7226 
487 1 106.42 6.05521 15.8297 17.5051 
493 1 106.42 11.5771 15.8097 15.8871 
492 1 106.42 8.08795 17.4738 17.6179 
90 1 106.42 9.64854 17.4467 19.4313 
411 1 106.42 9.66564 19.4934 17.6568 
496 1 106.42 11.7842 17.6831 17.7506 
417 1 106.42 15.517 19.3801 16.0145 
415 1 106.42 13.3719 19.6476 17.5939 
495 1 106.42 13.5603 15.7504 17.6777 
500 1 106.42 15.4076 17.8235 17.9885 
499 1 106.42 17.6209 15.7329 17.5735 
484 1 106.42 19.5791 17.743 17.5009 
98 1 106.42 17.7373 17.5366 19.2625 
498 1 106.42 17.7218 17.4778 15.7882 
