ITEM: TIMESTEP
44600
ITEM: NUMBER OF ATOMS
501
ITEM: BOX BOUNDS pp pp pp
0.0000000000000000e+00 1.9629018200000001e+01
0.0000000000000000e+00 1.9629018200000001e+01
0.0000000000000000e+00 1.9629018200000001e+01
ITEM: ATOMS id type mass x y z 
3 1 106.42 1.65058 -0.0264205 1.89322 
8 1 106.42 3.47428 1.92598 1.84124 
2 1 106.42 1.55726 2.07603 0.154071 
25 1 106.42 3.69435 3.98909 0.162093 
27 1 106.42 5.69064 4.00157 1.91287 
106 1 106.42 5.75804 1.8105 3.81565 
12 1 106.42 7.80104 1.78059 2.0804 
105 1 106.42 3.6864 0.0714166 3.64095 
6 1 106.42 5.88603 1.76723 0.166527 
29 1 106.42 7.82694 3.78039 0.235918 
11 1 106.42 9.6916 0.153361 1.95194 
16 1 106.42 11.6167 1.7536 1.91883 
35 1 106.42 13.4376 3.66108 1.93807 
37 1 106.42 15.7361 3.88395 0.236335 
20 1 106.42 15.4155 1.86206 1.877 
137 1 106.42 15.4631 3.69415 3.95635 
4 1 106.42 19.5034 1.71717 2.1117 
39 1 106.42 17.697 3.60109 2.13271 
117 1 106.42 15.7845 0.209987 3.74046 
23 1 106.42 1.68851 3.86519 2.37005 
122 1 106.42 1.76885 5.96977 3.87333 
22 1 106.42 2.04076 5.80276 0.149095 
125 1 106.42 3.72068 3.8794 3.75003 
28 1 106.42 4.06519 5.82269 1.82927 
126 1 106.42 5.82987 5.79019 3.94699 
32 1 106.42 7.74061 5.8077 1.90988 
47 1 106.42 5.94757 7.84271 1.95929 
31 1 106.42 9.70055 3.99557 2.12632 
149 1 106.42 8.19004 7.63304 3.83135 
30 1 106.42 9.61666 5.96241 19.589 
36 1 106.42 11.689 5.80128 1.86458 
40 1 106.42 15.5839 5.55991 1.66755 
134 1 106.42 13.734 5.85438 3.89407 
55 1 106.42 13.5383 7.64389 1.93019 
24 1 106.42 19.6737 6.00454 1.95752 
59 1 106.42 17.4638 7.83521 1.60774 
141 1 106.42 19.2913 7.909 3.51743 
138 1 106.42 17.8174 5.65916 3.83506 
157 1 106.42 15.8305 7.5796 3.90956 
38 1 106.42 17.8476 5.8524 0.144282 
43 1 106.42 2.05663 7.91043 1.94024 
142 1 106.42 2.06769 9.8654 3.8304 
42 1 106.42 1.88049 9.81232 0.0828514 
63 1 106.42 2.21099 11.8072 2.06016 
48 1 106.42 4.05347 9.73805 1.90399 
46 1 106.42 5.7369 9.92148 0.0691128 
52 1 106.42 7.85957 9.95527 2.20144 
49 1 106.42 7.7047 8.20301 0.120592 
51 1 106.42 9.92538 7.92977 1.96186 
150 1 106.42 9.95441 9.91525 3.60864 
50 1 106.42 9.78491 10.1539 0.187274 
53 1 106.42 11.6307 7.99863 -0.116757 
56 1 106.42 11.9523 9.87277 2.00998 
75 1 106.42 13.9321 11.8524 1.77417 
177 1 106.42 15.7808 11.66 3.9014 
154 1 106.42 13.758 9.79952 3.46425 
501 2 1.01 19.4928 9.83922 4.09929 
44 1 106.42 19.4385 10.0167 1.93208 
60 1 106.42 15.7705 9.76826 1.85697 
158 1 106.42 17.5512 9.84467 3.94381 
83 1 106.42 1.76426 15.6155 1.84037 
62 1 106.42 1.97285 13.5467 0.282233 
68 1 106.42 3.83567 13.8923 2.07942 
67 1 106.42 5.63486 11.8198 1.82007 
169 1 106.42 7.53501 12.0061 3.67335 
72 1 106.42 7.89911 14.0576 1.88061 
71 1 106.42 9.93933 11.8611 2.10368 
76 1 106.42 11.8485 14.0783 1.59124 
70 1 106.42 9.63599 13.5615 19.4971 
173 1 106.42 12.0297 11.9473 3.78756 
80 1 106.42 15.6859 13.8271 1.73234 
174 1 106.42 13.8437 13.8098 3.70824 
64 1 106.42 19.4498 13.6742 2.19818 
79 1 106.42 17.4811 11.8974 1.7399 
178 1 106.42 17.6033 13.7469 3.85683 
97 1 106.42 15.5974 15.8185 -0.0466931 
61 1 106.42 19.6287 11.9813 0.0981256 
5 1 106.42 3.88348 19.3154 0.0518326 
82 1 106.42 1.84809 17.6474 0.384885 
182 1 106.42 1.88846 17.8013 3.89219 
85 1 106.42 4.25567 15.9384 0.122176 
88 1 106.42 4.01528 17.6307 2.05045 
7 1 106.42 6.06387 19.4345 1.82831 
87 1 106.42 5.89471 15.7042 2.4389 
86 1 106.42 6.10117 17.4109 -0.00362375 
109 1 106.42 8.04776 19.5436 4.00042 
91 1 106.42 9.7643 16.0579 2.0838 
92 1 106.42 7.87109 17.7943 2.12072 
96 1 106.42 11.5866 17.8625 2.01337 
193 1 106.42 11.5668 15.6655 4.06333 
15 1 106.42 13.4565 19.6278 1.90096 
95 1 106.42 13.8875 15.8863 2.045 
94 1 106.42 13.6062 17.8999 0.022361 
100 1 106.42 15.465 17.9198 1.94408 
99 1 106.42 17.4815 15.9108 1.85246 
84 1 106.42 19.4065 17.4915 2.15426 
197 1 106.42 15.6635 15.7018 3.85271 
19 1 106.42 17.8444 19.6712 1.94633 
98 1 106.42 17.65 17.8135 0.213487 
102 1 106.42 1.76375 1.97712 4.1559 
104 1 106.42 0.153726 2.11627 6.26439 
201 1 106.42 0.0516989 0.147787 8.10377 
103 1 106.42 2.13448 0.135315 5.82597 
108 1 106.42 3.86489 2.18262 5.6709 
206 1 106.42 5.94878 2.0433 7.93234 
107 1 106.42 5.59755 0.0333455 6.16395 
209 1 106.42 7.79774 0.0914983 8.01579 
112 1 106.42 7.62012 1.97231 5.6821 
129 1 106.42 7.9765 3.72047 3.79384 
127 1 106.42 6.14204 3.85554 5.7736 
110 1 106.42 9.75185 1.88724 4.17474 
133 1 106.42 11.6861 3.63049 3.88289 
111 1 106.42 9.84082 0.236375 6.13578 
233 1 106.42 11.8599 4.11763 7.92277 
114 1 106.42 13.7348 1.74863 4.07529 
116 1 106.42 11.9214 1.77796 5.82385 
120 1 106.42 15.9187 1.86919 6.1028 
115 1 106.42 13.9261 19.4227 5.93198 
135 1 106.42 13.7045 4.00697 5.85006 
121 1 106.42 19.4685 3.60255 4.12236 
101 1 106.42 19.4237 0.0716869 4.16351 
118 1 106.42 17.5106 1.94592 3.99442 
139 1 106.42 17.5752 3.99451 5.73891 
119 1 106.42 17.4965 -0.0418261 5.88041 
123 1 106.42 2.06588 3.92146 5.99608 
143 1 106.42 1.97137 7.80408 5.95326 
222 1 106.42 1.81582 6.01574 7.82858 
124 1 106.42 -0.0886891 5.83297 5.88829 
145 1 106.42 3.98442 7.68221 3.84935 
229 1 106.42 7.86886 4.06642 7.84079 
128 1 106.42 4.28856 5.872 5.84413 
147 1 106.42 6.14088 7.91964 5.74084 
225 1 106.42 3.96143 3.98257 7.79825 
130 1 106.42 9.95537 5.92176 4.08684 
132 1 106.42 8.02974 5.88869 5.80437 
131 1 106.42 10.034 3.78921 5.90239 
230 1 106.42 9.83838 5.9518 7.78025 
153 1 106.42 11.8881 7.68305 3.88709 
136 1 106.42 11.9072 5.89662 5.93951 
234 1 106.42 13.6427 5.91177 7.80127 
140 1 106.42 15.66 5.64595 5.74225 
159 1 106.42 17.5799 7.75591 5.76124 
241 1 106.42 19.3466 7.85775 7.93824 
257 1 106.42 15.8992 7.63289 7.73225 
161 1 106.42 0.0216785 11.5524 3.98891 
242 1 106.42 1.80648 9.86237 7.62951 
148 1 106.42 3.73515 9.50265 6.01336 
146 1 106.42 5.81375 9.87445 4.09382 
246 1 106.42 5.87759 9.76405 7.76894 
249 1 106.42 7.60607 8.09982 7.67937 
152 1 106.42 7.8563 9.9764 5.73192 
151 1 106.42 9.88208 7.90689 5.88803 
250 1 106.42 9.87756 9.85033 7.65535 
156 1 106.42 11.7851 9.7669 5.5034 
273 1 106.42 11.9156 11.6492 7.6195 
171 1 106.42 9.86648 11.6669 5.52001 
155 1 106.42 13.9496 7.78949 5.80931 
175 1 106.42 13.8742 11.8423 5.55544 
254 1 106.42 14.0908 9.56308 7.89221 
253 1 106.42 11.8833 7.96259 7.6933 
160 1 106.42 15.6386 9.74297 5.71971 
144 1 106.42 19.5355 9.57348 5.76964 
258 1 106.42 17.5331 9.76582 7.74297 
162 1 106.42 1.69398 13.6342 3.86142 
165 1 106.42 4.0199 11.8273 3.96703 
163 1 106.42 1.84461 11.8052 5.89889 
183 1 106.42 1.77933 15.5395 5.77751 
168 1 106.42 3.86727 14.0035 6.03348 
166 1 106.42 5.91767 13.8148 4.13036 
167 1 106.42 5.80782 11.8093 6.11936 
265 1 106.42 3.90688 11.7455 7.87796 
170 1 106.42 9.8533 13.6304 3.95276 
172 1 106.42 8.15358 13.4314 6.05708 
189 1 106.42 7.82369 15.6218 4.35282 
270 1 106.42 10.0722 13.8141 7.83008 
176 1 106.42 11.7395 13.6573 5.97402 
274 1 106.42 13.8432 13.5518 7.56069 
195 1 106.42 13.5178 15.6041 5.71797 
179 1 106.42 17.6233 11.799 5.79781 
277 1 106.42 16.0427 11.9008 7.74214 
180 1 106.42 15.9374 13.9252 5.9179 
261 1 106.42 19.6104 11.8421 7.76379 
164 1 106.42 19.2934 13.845 5.77622 
181 1 106.42 19.5532 15.8304 3.90133 
185 1 106.42 3.71778 15.8327 3.95335 
282 1 106.42 1.9536 17.7937 7.72635 
184 1 106.42 0.151009 17.7463 5.86711 
188 1 106.42 4.03367 17.566 6.07292 
187 1 106.42 5.9587 15.6725 6.21035 
186 1 106.42 5.97682 17.9084 3.88227 
192 1 106.42 7.55564 17.9355 5.95334 
191 1 106.42 9.91671 15.8677 6.06267 
190 1 106.42 9.69905 17.7472 4.18407 
196 1 106.42 11.793 17.823 6.02743 
113 1 106.42 11.5548 19.6376 4.14354 
194 1 106.42 13.4637 17.615 3.98023 
200 1 106.42 15.4401 17.3508 6.08849 
198 1 106.42 17.6702 17.7439 4.11223 
199 1 106.42 17.6664 15.9028 5.96312 
202 1 106.42 2.30038 1.72504 7.87585 
204 1 106.42 -0.0550676 1.93655 9.74348 
203 1 106.42 1.84868 -0.01683 9.90868 
223 1 106.42 2.18297 3.83637 9.62035 
302 1 106.42 2.13995 1.89439 11.5614 
208 1 106.42 4.2591 1.97214 9.83464 
212 1 106.42 7.44139 1.78659 9.76687 
210 1 106.42 9.71927 2.10456 8.13844 
310 1 106.42 9.97776 1.78703 11.6636 
329 1 106.42 8.08614 3.89555 11.5306 
214 1 106.42 13.598 2.08067 8.03991 
213 1 106.42 11.7371 0.148212 7.75281 
216 1 106.42 11.803 2.19711 9.99069 
237 1 106.42 15.6146 3.76875 7.74596 
215 1 106.42 14.0633 0.234371 10.0114 
337 1 106.42 15.7509 3.80106 11.7405 
218 1 106.42 17.6699 1.9724 7.82232 
220 1 106.42 15.7633 2.2667 9.85863 
317 1 106.42 15.8197 0.220389 11.8761 
219 1 106.42 17.6397 0.0516859 9.7333 
245 1 106.42 3.76784 7.88923 7.81395 
221 1 106.42 0.266761 4.24962 8.03574 
228 1 106.42 3.78648 6.02496 9.59731 
224 1 106.42 0.0245523 5.91126 9.76104 
321 1 106.42 -0.0185546 3.83509 11.7106 
322 1 106.42 2.02452 5.78098 11.6444 
325 1 106.42 3.96148 4.04996 11.624 
227 1 106.42 5.78237 4.23351 9.82762 
226 1 106.42 5.98196 5.88438 7.68209 
232 1 106.42 7.9163 6.16234 10.0669 
231 1 106.42 9.78882 4.08548 9.68002 
333 1 106.42 11.4782 4.08993 11.6519 
236 1 106.42 11.4203 6.24764 9.72231 
235 1 106.42 13.7172 4.06039 9.71792 
240 1 106.42 15.6479 5.81425 9.90496 
255 1 106.42 13.6915 7.77 9.88173 
334 1 106.42 13.4269 5.7263 11.4842 
239 1 106.42 17.6289 4.04587 9.76754 
238 1 106.42 17.6036 5.68818 7.88146 
259 1 106.42 17.5467 7.66809 9.86785 
243 1 106.42 2.01161 8.12339 9.64174 
263 1 106.42 1.85452 11.6374 9.62958 
345 1 106.42 3.74155 7.79994 11.6639 
248 1 106.42 3.84438 9.86224 9.70486 
247 1 106.42 5.76026 7.72675 9.85425 
252 1 106.42 7.59994 9.7114 9.81786 
365 1 106.42 3.91084 11.7598 11.452 
269 1 106.42 8.10926 11.7859 8.07113 
251 1 106.42 9.63696 8.12946 9.80223 
350 1 106.42 9.90305 9.83884 11.9169 
256 1 106.42 11.7364 9.7332 9.86904 
271 1 106.42 9.99407 11.7561 9.66801 
369 1 106.42 8.00365 11.6879 11.8361 
353 1 106.42 11.6786 7.96585 11.5941 
275 1 106.42 13.7595 11.6619 9.80024 
260 1 106.42 15.8342 9.83401 9.8699 
244 1 106.42 19.5299 9.62703 9.92186 
279 1 106.42 17.6755 11.662 9.78518 
262 1 106.42 1.93402 13.5886 8.23447 
283 1 106.42 1.97728 15.4586 10.1232 
281 1 106.42 0.114488 15.5806 7.93013 
362 1 106.42 1.95977 13.7043 11.7404 
268 1 106.42 4.28034 13.8342 9.60885 
266 1 106.42 5.99073 13.593 7.69458 
267 1 106.42 5.8878 11.7319 9.98195 
287 1 106.42 5.77066 15.6738 9.74055 
289 1 106.42 7.94223 15.5267 7.94792 
272 1 106.42 7.84936 13.7755 9.80803 
370 1 106.42 10.0958 13.9361 11.5065 
293 1 106.42 12.2108 15.6938 7.81033 
276 1 106.42 12.0037 13.4952 9.81491 
297 1 106.42 15.4792 15.6291 7.93264 
374 1 106.42 14.0363 13.9039 11.7407 
393 1 106.42 12.0182 15.5516 11.6731 
278 1 106.42 17.6407 13.8771 7.99189 
264 1 106.42 19.342 14.0314 10.0228 
377 1 106.42 15.7472 11.8426 11.8105 
280 1 106.42 15.9614 13.4819 9.69517 
285 1 106.42 3.77915 15.8417 8.09387 
205 1 106.42 3.95964 19.4525 8.18779 
301 1 106.42 0.0750746 19.6399 11.9679 
284 1 106.42 0.212479 17.4947 9.63892 
288 1 106.42 3.8008 17.501 10.072 
286 1 106.42 6.19505 17.5687 8.21888 
207 1 106.42 5.91437 19.3908 10.0275 
292 1 106.42 7.74004 17.3635 10.0428 
291 1 106.42 10.1525 15.7457 9.69258 
211 1 106.42 9.42425 19.2799 9.89342 
290 1 106.42 9.83778 17.8133 7.8429 
295 1 106.42 13.8355 15.8515 9.83946 
294 1 106.42 13.7445 17.9112 7.98729 
296 1 106.42 11.6414 18.0908 9.60283 
300 1 106.42 15.5687 17.5785 9.92131 
217 1 106.42 15.6343 19.5625 7.97006 
299 1 106.42 17.6214 15.8895 9.66515 
298 1 106.42 17.6207 17.5644 7.81522 
398 1 106.42 17.8615 17.7887 11.5261 
304 1 106.42 0.138517 2.0539 13.5741 
402 1 106.42 2.12368 1.93505 15.3341 
306 1 106.42 5.76621 1.94263 11.9874 
308 1 106.42 4.02122 2.20727 13.6436 
307 1 106.42 5.69966 0.0999835 14.0417 
409 1 106.42 7.98063 -0.0113516 15.8316 
312 1 106.42 8.0021 2.16234 13.7759 
316 1 106.42 11.7357 2.01261 13.7495 
309 1 106.42 7.92587 0.123582 11.9384 
313 1 106.42 11.8473 -0.0655309 11.7583 
314 1 106.42 13.5123 2.00145 11.8775 
414 1 106.42 13.7175 2.00003 15.5432 
315 1 106.42 13.9311 -0.122283 13.7365 
320 1 106.42 15.7237 1.94105 13.877 
318 1 106.42 17.6576 1.92664 11.4902 
418 1 106.42 17.8527 2.0823 15.74 
323 1 106.42 2.1551 3.83384 13.5375 
421 1 106.42 0.112639 3.78972 15.5273 
343 1 106.42 2.0321 7.72892 13.7031 
324 1 106.42 0.191877 5.70726 13.7035 
328 1 106.42 3.86711 5.82881 13.8528 
341 1 106.42 0.299575 7.54027 11.8274 
441 1 106.42 0.0807664 7.61698 15.3829 
326 1 106.42 5.67804 6.0115 11.8164 
327 1 106.42 5.77584 4.18628 13.8 
426 1 106.42 6.05025 5.96837 15.6136 
332 1 106.42 7.90477 5.88897 13.3332 
330 1 106.42 9.91064 6.32192 11.874 
331 1 106.42 9.73821 3.97127 13.7048 
336 1 106.42 11.6648 6.15405 13.7728 
430 1 106.42 9.67954 5.77491 15.5987 
335 1 106.42 13.8849 4.02371 13.4937 
433 1 106.42 11.9699 3.96892 15.571 
340 1 106.42 15.6006 6.04409 13.4654 
437 1 106.42 15.6953 3.78975 15.6954 
457 1 106.42 15.7279 7.57901 15.5464 
355 1 106.42 13.6489 7.86779 13.5058 
434 1 106.42 13.7634 5.82224 15.3604 
338 1 106.42 17.8117 5.87908 11.8103 
339 1 106.42 17.5866 3.94812 13.5957 
359 1 106.42 17.7828 7.91707 13.6433 
342 1 106.42 1.91034 9.81925 11.6753 
363 1 106.42 1.76328 11.614 13.9727 
442 1 106.42 2.19828 9.50546 15.665 
346 1 106.42 5.94992 9.66125 12.0583 
348 1 106.42 3.96544 10.0779 13.5246 
349 1 106.42 7.86743 8.10845 11.848 
347 1 106.42 5.93922 8.01749 14.0449 
449 1 106.42 8.17643 7.95689 15.5942 
352 1 106.42 8.00281 10.0206 13.9287 
351 1 106.42 9.79288 7.86341 13.8599 
356 1 106.42 11.6855 9.67063 13.9416 
371 1 106.42 10.0886 11.6355 13.6148 
354 1 106.42 13.877 9.93673 11.8898 
373 1 106.42 11.989 11.7679 11.7405 
375 1 106.42 13.8242 11.6478 13.9153 
454 1 106.42 13.6096 9.78311 15.7642 
357 1 106.42 15.8339 7.84748 11.881 
360 1 106.42 15.7432 9.6897 13.8653 
344 1 106.42 19.5232 9.86919 13.6745 
358 1 106.42 17.4863 9.93105 11.7981 
368 1 106.42 3.50521 13.4943 13.5245 
364 1 106.42 0.296324 13.6612 13.8436 
361 1 106.42 19.4964 11.589 11.8222 
385 1 106.42 3.94351 15.6205 11.9241 
481 1 106.42 0.127576 15.6006 15.5878 
366 1 106.42 5.93315 13.6662 12.0343 
367 1 106.42 5.72202 11.7056 13.8734 
387 1 106.42 5.83248 15.6061 13.7253 
466 1 106.42 5.72828 13.6995 15.3878 
372 1 106.42 8.10474 13.6078 13.6162 
389 1 106.42 7.8237 15.3494 11.6636 
391 1 106.42 10.2326 15.6231 13.5604 
489 1 106.42 7.9153 15.7012 15.5556 
470 1 106.42 9.81325 13.6452 15.5487 
376 1 106.42 12.0038 13.4178 13.8104 
380 1 106.42 15.5781 13.4918 13.9073 
395 1 106.42 13.8695 15.6673 13.6524 
379 1 106.42 17.5122 11.6598 13.7271 
378 1 106.42 17.7912 13.8797 12.1235 
478 1 106.42 17.8397 13.5924 16.0005 
399 1 106.42 17.519 15.6841 13.9012 
303 1 106.42 1.91808 19.4607 13.7927 
383 1 106.42 2.12597 15.9406 13.8076 
382 1 106.42 1.99109 17.7904 11.8368 
305 1 106.42 3.99744 19.7548 11.7684 
386 1 106.42 5.77399 17.6176 11.8818 
388 1 106.42 4.09873 17.6371 13.9667 
392 1 106.42 7.8337 17.2546 13.7507 
311 1 106.42 10.0029 19.5047 13.8088 
390 1 106.42 9.58878 17.3688 11.9855 
490 1 106.42 10.0006 17.4126 15.4942 
413 1 106.42 12.0284 19.6562 15.5548 
394 1 106.42 13.5787 17.6222 11.7445 
396 1 106.42 11.7965 17.6215 13.6949 
494 1 106.42 13.7283 17.5352 15.8661 
381 1 106.42 19.5664 15.741 11.9366 
417 1 106.42 15.6924 19.6214 15.78 
319 1 106.42 17.7776 0.157214 13.7348 
397 1 106.42 15.9458 15.6527 11.9189 
384 1 106.42 19.6359 17.5968 13.8194 
400 1 106.42 15.9379 17.6717 13.6315 
423 1 106.42 1.8221 3.88294 17.6534 
403 1 106.42 1.92213 0.237632 17.7488 
408 1 106.42 3.74406 2.34864 17.8629 
425 1 106.42 4.23767 3.76505 16.0046 
406 1 106.42 5.87764 1.85197 15.8049 
427 1 106.42 6.00278 3.78065 17.9454 
10 1 106.42 9.66142 2.04393 19.3437 
429 1 106.42 7.91026 3.81015 15.897 
410 1 106.42 9.92261 1.8414 15.6493 
412 1 106.42 7.86364 1.87916 17.5245 
416 1 106.42 11.7975 2.09416 17.492 
13 1 106.42 11.4249 0.35551 19.4217 
14 1 106.42 13.5513 2.03395 19.5128 
415 1 106.42 13.8142 0.026443 17.6954 
17 1 106.42 15.8435 0.201302 19.5743 
404 1 106.42 19.7966 1.95386 17.5182 
420 1 106.42 15.8352 2.3708 17.6245 
18 1 106.42 17.6893 2.00585 19.5389 
41 1 106.42 -0.0776437 7.82022 19.5484 
422 1 106.42 2.0546 5.5761 15.7887 
21 1 106.42 0.048319 4.08582 0.131423 
424 1 106.42 0.0495247 5.98368 17.4942 
428 1 106.42 3.77815 5.89631 17.707 
445 1 106.42 4.00795 7.81258 15.6768 
26 1 106.42 5.77742 5.75946 19.5637 
447 1 106.42 5.85266 7.59585 17.7614 
33 1 106.42 11.4623 3.97211 19.4194 
431 1 106.42 9.90439 4.17119 17.4828 
432 1 106.42 7.59308 5.94232 17.5441 
436 1 106.42 11.9193 5.86783 17.639 
435 1 106.42 13.628 3.97793 17.61 
34 1 106.42 13.7704 5.88523 19.5231 
440 1 106.42 15.7594 5.73585 17.9441 
455 1 106.42 13.6998 7.54283 17.3566 
439 1 106.42 17.7035 4.16032 17.4839 
438 1 106.42 17.6217 5.89277 15.5241 
459 1 106.42 17.6077 7.56705 17.385 
443 1 106.42 1.96952 7.78535 17.5902 
448 1 106.42 3.79597 9.90221 17.6471 
463 1 106.42 1.90864 11.7146 17.6478 
45 1 106.42 4.02304 7.89647 19.5008 
65 1 106.42 3.99184 11.6412 19.6282 
69 1 106.42 7.79561 11.8577 19.5986 
446 1 106.42 5.5639 9.84275 15.9856 
452 1 106.42 7.83027 9.69678 17.47 
450 1 106.42 9.91328 10.0013 15.7881 
451 1 106.42 9.60214 7.97875 17.9962 
456 1 106.42 11.6038 9.79769 17.7455 
453 1 106.42 11.4433 7.77256 15.9432 
57 1 106.42 15.7604 7.82355 19.4873 
477 1 106.42 15.473 11.7932 15.7776 
54 1 106.42 14.0048 9.72738 19.7306 
460 1 106.42 15.6032 9.64266 17.2714 
475 1 106.42 13.6605 11.4993 17.7372 
461 1 106.42 0.0491639 11.5711 15.6768 
458 1 106.42 17.6975 9.67939 15.7905 
58 1 106.42 17.448 9.72821 19.3825 
444 1 106.42 19.7427 9.78234 17.7426 
479 1 106.42 17.4474 11.6773 17.7079 
81 1 106.42 0.0384734 15.7318 19.6193 
465 1 106.42 3.95079 11.7358 15.8955 
485 1 106.42 3.9707 15.8445 15.7884 
462 1 106.42 2.03412 13.7592 15.7323 
464 1 106.42 0.217666 13.6904 17.8913 
483 1 106.42 2.22632 15.4318 17.9099 
467 1 106.42 6.1093 11.9965 17.7637 
468 1 106.42 3.90185 13.6453 17.902 
66 1 106.42 6.03667 13.8535 0.257919 
469 1 106.42 7.94433 12.0449 15.7336 
472 1 106.42 7.76391 13.9656 17.5605 
487 1 106.42 5.6621 15.527 17.7072 
473 1 106.42 11.7769 11.7937 15.7874 
471 1 106.42 9.67567 11.8739 17.6012 
476 1 106.42 11.4004 13.9454 17.8105 
73 1 106.42 11.8579 12.0166 19.6525 
74 1 106.42 13.6842 13.7804 19.2365 
474 1 106.42 13.6503 13.7094 16.0685 
497 1 106.42 15.5355 15.7811 15.8115 
77 1 106.42 15.6515 12.1066 19.5484 
78 1 106.42 17.6529 13.8757 19.5536 
480 1 106.42 15.7308 13.9093 17.4233 
482 1 106.42 1.97176 17.5822 16.0239 
401 1 106.42 19.5784 19.7053 15.7879 
484 1 106.42 0.218339 17.7955 17.6277 
488 1 106.42 3.76819 17.7007 17.7821 
486 1 106.42 5.99359 17.4572 15.7607 
405 1 106.42 3.9516 19.5602 16.0186 
407 1 106.42 5.73955 19.6064 17.6653 
9 1 106.42 7.97694 19.4799 19.5382 
90 1 106.42 9.9305 17.8842 19.4322 
492 1 106.42 8.00048 17.74 17.5111 
89 1 106.42 8.28982 15.8191 19.6578 
411 1 106.42 9.89427 19.5402 17.3315 
93 1 106.42 11.7797 16.0694 0.0570843 
491 1 106.42 9.94906 15.7983 17.3235 
493 1 106.42 12.1115 15.716 15.6934 
495 1 106.42 13.5791 15.8549 17.9874 
496 1 106.42 11.9686 17.9303 17.5613 
1 1 106.42 19.5639 19.6678 19.44 
499 1 106.42 17.8011 15.8572 17.531 
498 1 106.42 17.7396 17.668 15.5981 
419 1 106.42 17.5812 19.3606 17.5308 
500 1 106.42 15.7384 17.4934 17.8681 
