ITEM: TIMESTEP
47300
ITEM: NUMBER OF ATOMS
501
ITEM: BOX BOUNDS pp pp pp
0.0000000000000000e+00 1.9629018200000001e+01
0.0000000000000000e+00 1.9629018200000001e+01
0.0000000000000000e+00 1.9629018200000001e+01
ITEM: ATOMS id type mass x y z 
2 1 106.42 2.05486 2.17193 0.0636153 
3 1 106.42 2.1719 0.380899 2.19752 
1 1 106.42 0.0179522 0.431243 0.195656 
8 1 106.42 4.10352 2.09122 2.1345 
6 1 106.42 5.75661 1.88034 0.0645374 
29 1 106.42 7.62538 3.71296 0.012475 
7 1 106.42 5.70889 0.142786 2.02954 
12 1 106.42 8.00775 1.85935 1.9426 
10 1 106.42 10.1383 1.91838 0.34969 
110 1 106.42 9.73451 1.71023 3.79697 
133 1 106.42 11.6613 3.72802 3.83851 
16 1 106.42 11.9228 1.85021 2.3204 
14 1 106.42 13.8676 2.04638 0.0961785 
35 1 106.42 14.0326 3.80889 2.037 
117 1 106.42 15.6478 0.0748423 3.93631 
4 1 106.42 19.5455 1.97261 2.04592 
20 1 106.42 15.8342 1.9943 2.2646 
18 1 106.42 17.3757 1.95263 0.218491 
118 1 106.42 17.743 2.02254 3.87735 
23 1 106.42 1.94837 3.903 1.87971 
22 1 106.42 1.91813 5.82324 0.205224 
501 2 1.01 0.981777 6.57115 1.23841 
41 1 106.42 0.139905 7.85014 0.0593444 
122 1 106.42 1.8405 5.82579 3.78208 
27 1 106.42 6.02171 4.03874 2.18566 
28 1 106.42 3.98569 6.01719 1.91355 
25 1 106.42 4.32167 3.96215 0.0632553 
126 1 106.42 5.8407 5.95299 3.82965 
26 1 106.42 6.0278 5.74877 0.214519 
31 1 106.42 9.77518 3.93693 1.9235 
32 1 106.42 7.9307 6.16746 1.91575 
153 1 106.42 11.7074 7.73748 4.00988 
36 1 106.42 11.9765 5.59645 2.05959 
40 1 106.42 15.5692 6.18452 2.04115 
53 1 106.42 11.7666 7.55528 0.0914168 
137 1 106.42 15.6906 4.19006 3.83229 
39 1 106.42 17.6693 4.08762 1.84703 
24 1 106.42 19.3647 5.96499 2.0369 
43 1 106.42 2.24827 7.88788 2.35771 
45 1 106.42 3.8018 8.04881 0.142964 
48 1 106.42 3.74728 9.9407 1.88014 
44 1 106.42 0.141697 9.87297 2.07655 
165 1 106.42 3.9048 11.6095 3.76963 
142 1 106.42 2.02767 10.0432 3.78702 
47 1 106.42 5.86882 8.25636 1.99095 
67 1 106.42 5.94913 11.5851 2.06945 
46 1 106.42 5.90221 9.84566 0.239798 
149 1 106.42 7.92528 7.97666 3.86382 
51 1 106.42 9.91246 7.85662 2.12927 
52 1 106.42 7.92311 9.68627 1.73625 
71 1 106.42 9.8947 11.3651 1.80291 
173 1 106.42 11.7364 11.6919 3.88292 
55 1 106.42 13.6733 7.93351 2.10446 
56 1 106.42 11.8854 9.73904 1.80004 
60 1 106.42 15.7374 9.73223 1.92874 
75 1 106.42 13.5919 11.6859 1.76297 
177 1 106.42 15.6538 11.6624 3.75719 
57 1 106.42 15.7725 8.01756 0.047935 
59 1 106.42 17.7342 7.93559 2.26559 
58 1 106.42 17.9311 9.72938 0.170142 
158 1 106.42 17.9185 10.0728 3.659 
63 1 106.42 1.8841 12.1473 1.80044 
65 1 106.42 3.79601 11.8906 0.0287689 
162 1 106.42 2.03839 13.8215 3.76092 
181 1 106.42 0.181909 15.6634 3.82043 
62 1 106.42 2.06989 13.8258 0.00109865 
68 1 106.42 3.86697 13.9651 1.85705 
72 1 106.42 7.77334 13.689 2.06702 
166 1 106.42 5.92122 13.6075 3.76204 
185 1 106.42 3.89724 15.6037 3.71911 
89 1 106.42 7.79619 15.4218 0.104456 
70 1 106.42 9.80307 13.4808 0.150551 
91 1 106.42 9.8279 15.6431 1.93897 
69 1 106.42 7.75119 11.7889 0.170117 
76 1 106.42 11.634 13.7036 2.08159 
74 1 106.42 13.858 13.6252 -0.0604861 
80 1 106.42 15.6679 13.7852 1.78628 
95 1 106.42 13.595 15.4814 2.13357 
197 1 106.42 15.7288 15.603 3.79293 
79 1 106.42 17.8226 11.8657 1.86769 
64 1 106.42 19.6202 13.7937 1.95192 
178 1 106.42 17.5133 13.6311 3.54387 
99 1 106.42 17.8384 15.5838 1.71045 
77 1 106.42 15.6766 11.9072 0.150147 
85 1 106.42 3.87484 15.8277 -0.106047 
83 1 106.42 1.95532 15.7266 1.79574 
88 1 106.42 3.72835 17.7421 2.07274 
101 1 106.42 0.10581 19.6576 3.66665 
84 1 106.42 0.0561643 17.6386 1.79055 
182 1 106.42 2.11471 17.6457 3.85457 
82 1 106.42 1.94591 17.9231 0.138686 
87 1 106.42 5.72992 15.7711 1.55664 
189 1 106.42 7.78083 15.6936 3.6426 
92 1 106.42 7.62028 17.8227 1.8718 
186 1 106.42 5.76989 17.4728 3.88356 
11 1 106.42 9.90458 19.558 2.05933 
96 1 106.42 11.5802 17.6698 1.71791 
109 1 106.42 7.86281 19.5396 3.7251 
15 1 106.42 13.8963 19.2588 1.99857 
194 1 106.42 13.988 17.6969 3.94553 
100 1 106.42 15.6799 17.4273 1.76957 
19 1 106.42 17.652 19.4334 2.03049 
198 1 106.42 17.8445 17.7003 3.94118 
102 1 106.42 2.04608 1.98988 4.04582 
108 1 106.42 3.9314 1.90362 5.98769 
123 1 106.42 1.95201 3.66519 5.81752 
106 1 106.42 5.94798 2.01466 4.32297 
129 1 106.42 7.85397 3.69055 4.01521 
112 1 106.42 7.89742 1.87347 5.79946 
209 1 106.42 7.78552 0.206593 7.80505 
131 1 106.42 9.74731 3.8799 5.81764 
116 1 106.42 11.4614 1.83924 5.81701 
233 1 106.42 11.7759 3.57839 7.74615 
210 1 106.42 9.87905 1.62039 7.86761 
114 1 106.42 13.7537 2.16399 4.1169 
113 1 106.42 11.9512 0.0581344 3.88188 
120 1 106.42 15.7609 1.83693 5.94521 
104 1 106.42 19.65 1.9653 5.74819 
221 1 106.42 19.5565 3.83914 7.77579 
121 1 106.42 19.493 3.6452 3.97374 
139 1 106.42 17.5372 3.71849 5.97562 
125 1 106.42 3.99172 3.99081 4.02553 
128 1 106.42 3.92126 5.64769 5.90066 
124 1 106.42 0.237048 5.61718 6.15414 
127 1 106.42 5.89858 3.93887 6.14889 
147 1 106.42 5.97784 7.5992 5.93649 
130 1 106.42 9.77633 5.85223 3.91766 
132 1 106.42 7.81848 5.88161 5.96691 
230 1 106.42 10.0837 5.60037 7.9361 
151 1 106.42 9.97785 7.55171 5.73929 
136 1 106.42 11.7143 5.72129 5.87349 
253 1 106.42 11.6921 7.68929 7.85406 
229 1 106.42 8.04061 4.05763 7.73273 
135 1 106.42 13.9307 4.02752 5.8228 
134 1 106.42 13.7245 5.83243 4.00239 
155 1 106.42 13.5868 7.90501 5.8662 
234 1 106.42 13.5476 5.82352 7.73662 
138 1 106.42 17.6514 5.97046 4.14915 
140 1 106.42 15.6425 5.91132 6.10672 
238 1 106.42 17.5459 5.8732 7.67228 
141 1 106.42 -0.0318883 7.78411 4.16849 
143 1 106.42 2.17344 7.96716 5.98715 
241 1 106.42 0.1792 8.04301 7.90187 
163 1 106.42 2.0165 11.6801 6.07231 
146 1 106.42 6.00121 9.97515 4.12799 
145 1 106.42 4.1955 8.07939 3.96758 
148 1 106.42 4.18431 9.95165 6.06528 
246 1 106.42 5.89056 9.39247 7.80746 
269 1 106.42 7.57816 11.637 7.81955 
150 1 106.42 9.81803 9.89016 4.05979 
169 1 106.42 8.13104 11.5067 4.00246 
152 1 106.42 7.87282 9.35364 5.98143 
250 1 106.42 9.89579 9.71487 7.8807 
156 1 106.42 11.5172 9.66582 6.01663 
154 1 106.42 13.5381 9.92664 4.1387 
157 1 106.42 15.482 8.04907 3.88168 
257 1 106.42 15.4941 7.96729 7.5588 
254 1 106.42 13.5388 9.89933 7.71411 
144 1 106.42 19.572 9.95752 6.0276 
160 1 106.42 15.8372 10.0047 5.78182 
159 1 106.42 17.615 8.13337 5.72634 
258 1 106.42 17.8246 10.0003 7.85034 
161 1 106.42 0.173892 11.8763 4.2024 
164 1 106.42 0.106823 13.8828 5.86737 
262 1 106.42 1.91109 13.9618 7.66493 
261 1 106.42 0.21689 11.8762 7.74777 
167 1 106.42 5.82374 11.9121 5.77865 
168 1 106.42 3.97168 13.6228 5.754 
172 1 106.42 7.81995 13.7626 5.85774 
187 1 106.42 5.85575 15.6794 5.90412 
171 1 106.42 10.0103 12.028 6.0918 
170 1 106.42 9.80858 13.4774 3.83687 
191 1 106.42 9.61497 15.804 6.03432 
293 1 106.42 11.6857 15.7075 7.7975 
270 1 106.42 9.59293 13.8232 7.63904 
176 1 106.42 11.9638 14.0457 5.75193 
174 1 106.42 13.7973 13.6317 4.05227 
277 1 106.42 15.5258 11.805 7.6818 
175 1 106.42 13.6961 11.768 5.97375 
179 1 106.42 17.5857 11.9973 5.51924 
180 1 106.42 15.8065 14.0485 6.04495 
199 1 106.42 17.7266 15.6626 5.56988 
278 1 106.42 17.8373 13.5576 7.71644 
103 1 106.42 1.41801 19.6146 5.92348 
183 1 106.42 2.07811 15.8857 6.03681 
188 1 106.42 3.86197 17.8185 6.07816 
105 1 106.42 3.97056 19.5365 4.04552 
107 1 106.42 6.1115 19.6464 5.80738 
286 1 106.42 5.90032 17.7109 7.81012 
192 1 106.42 7.76218 17.657 5.83814 
111 1 106.42 9.7103 19.3856 5.56835 
190 1 106.42 9.84039 17.447 3.9298 
195 1 106.42 13.8113 15.8436 5.78283 
193 1 106.42 11.7326 15.8524 4.12158 
115 1 106.42 13.6689 19.658 6.06263 
196 1 106.42 11.7455 17.6409 5.69755 
294 1 106.42 14.0057 17.5216 7.76275 
184 1 106.42 19.4557 17.5901 5.77392 
119 1 106.42 17.689 19.5308 6.03286 
200 1 106.42 15.8647 17.4673 5.90716 
202 1 106.42 1.61849 2.01744 7.97147 
225 1 106.42 3.79784 3.75881 8.18339 
208 1 106.42 3.61606 1.90134 9.9875 
205 1 106.42 3.67074 -0.00497418 7.90999 
223 1 106.42 1.98477 3.91145 9.76473 
302 1 106.42 1.81048 2.16642 11.6653 
325 1 106.42 3.79879 3.89853 11.575 
206 1 106.42 5.9088 2.11513 7.93978 
306 1 106.42 5.78386 1.68553 11.7854 
227 1 106.42 5.91993 3.81851 10.0514 
207 1 106.42 5.69396 0.0441519 9.72358 
212 1 106.42 7.8725 1.98443 9.90939 
211 1 106.42 10.1425 -0.0934211 9.76231 
216 1 106.42 11.9209 2.08464 9.94348 
214 1 106.42 13.5503 2.0022 7.93502 
220 1 106.42 15.6889 1.88508 9.85136 
314 1 106.42 13.7017 1.96219 11.7711 
237 1 106.42 15.7102 3.70386 8.00274 
313 1 106.42 11.7234 0.115156 11.4472 
204 1 106.42 19.565 1.89399 10.0336 
218 1 106.42 17.6217 2.02098 7.8116 
219 1 106.42 17.6371 0.0651484 9.98045 
239 1 106.42 17.83 3.8081 9.84891 
222 1 106.42 2.03801 5.78911 7.80709 
243 1 106.42 2.02317 7.62925 9.93463 
224 1 106.42 0.185328 5.93579 9.53774 
245 1 106.42 4.03766 7.61855 8.1648 
226 1 106.42 5.81764 5.91411 7.94028 
228 1 106.42 4.26016 5.82254 9.88393 
345 1 106.42 4.02744 7.67357 11.5151 
326 1 106.42 5.99091 5.91898 11.7526 
231 1 106.42 10.0475 3.97494 9.84391 
232 1 106.42 8.06458 5.58024 9.86713 
249 1 106.42 8.17554 7.71554 7.99076 
236 1 106.42 11.8391 5.66949 10.0773 
330 1 106.42 9.77103 5.96928 11.8335 
251 1 106.42 10.1397 7.61728 9.99283 
235 1 106.42 13.7377 4.09969 9.57204 
334 1 106.42 14.0119 5.8974 11.6869 
337 1 106.42 15.6559 3.92118 11.6695 
353 1 106.42 12.0138 7.76469 11.8046 
240 1 106.42 15.7669 6.03992 9.62603 
259 1 106.42 17.6299 7.88489 9.7011 
341 1 106.42 19.5363 7.68107 11.4971 
338 1 106.42 17.5659 5.87822 11.6292 
242 1 106.42 2.18681 9.76047 8.01511 
342 1 106.42 2.29358 9.74389 11.7338 
244 1 106.42 0.226799 9.827 9.87801 
263 1 106.42 2.08967 11.5648 9.73242 
247 1 106.42 6.3324 7.83091 9.8436 
248 1 106.42 4.17117 9.75297 9.68077 
346 1 106.42 6.05218 9.7342 11.61 
265 1 106.42 4.04779 11.7859 7.94003 
349 1 106.42 8.16554 7.92194 11.6007 
252 1 106.42 8.07484 9.74878 9.69658 
271 1 106.42 9.7573 11.8042 9.95143 
255 1 106.42 13.648 7.83674 9.60728 
256 1 106.42 12.0346 10.0293 9.85829 
260 1 106.42 15.6469 9.54645 9.74425 
358 1 106.42 17.6701 9.91423 11.6309 
279 1 106.42 17.6949 11.6904 9.59772 
361 1 106.42 19.5539 11.5756 11.5509 
362 1 106.42 2.02329 13.4948 11.6755 
268 1 106.42 3.67177 13.8882 9.71433 
385 1 106.42 3.93292 15.688 11.7127 
264 1 106.42 0.22814 13.5844 9.60476 
267 1 106.42 5.72186 11.8266 9.82648 
289 1 106.42 7.57173 15.5863 7.87132 
266 1 106.42 5.83354 13.7336 7.92635 
287 1 106.42 5.88946 15.6487 9.86153 
366 1 106.42 5.79909 13.8788 11.4321 
285 1 106.42 4.12056 15.647 7.88165 
389 1 106.42 7.71173 15.6416 11.8111 
272 1 106.42 7.77093 13.5212 9.83561 
373 1 106.42 11.7643 11.9164 11.7665 
276 1 106.42 11.5482 13.7509 10.0939 
291 1 106.42 9.44613 15.5436 9.7466 
393 1 106.42 11.6728 15.6123 11.6214 
273 1 106.42 11.8885 12.0691 8.04417 
275 1 106.42 13.7057 11.8093 10.0178 
274 1 106.42 13.5094 13.9839 7.98129 
374 1 106.42 14.0167 13.9961 11.6076 
297 1 106.42 15.6738 15.677 8.02437 
280 1 106.42 15.7346 13.7626 9.69338 
299 1 106.42 17.707 15.5992 9.72783 
378 1 106.42 17.7617 13.6904 11.7445 
381 1 106.42 19.6047 15.4569 11.6409 
282 1 106.42 1.84267 17.6832 7.96682 
203 1 106.42 1.80989 19.4456 9.9131 
283 1 106.42 1.82288 15.8638 9.85268 
305 1 106.42 3.72693 19.444 11.6351 
288 1 106.42 4.06975 17.5938 9.58584 
292 1 106.42 7.65227 17.6304 9.51724 
309 1 106.42 7.7718 19.5614 11.5303 
386 1 106.42 5.74495 17.5639 11.6505 
290 1 106.42 9.72634 17.5449 8.13496 
213 1 106.42 11.7761 19.2602 7.82267 
390 1 106.42 9.70267 17.7531 11.6738 
217 1 106.42 15.672 19.2632 8.02721 
295 1 106.42 13.9542 15.7785 9.74342 
296 1 106.42 11.7907 17.2777 9.74763 
215 1 106.42 13.652 19.4211 9.57687 
394 1 106.42 13.5042 17.8408 11.8588 
317 1 106.42 15.6913 19.563 11.7956 
281 1 106.42 19.5152 15.893 7.89236 
201 1 106.42 19.4672 19.5698 8.05469 
298 1 106.42 17.8462 17.718 8.05464 
284 1 106.42 19.4296 17.7728 10.0898 
300 1 106.42 16.0164 17.5285 10.0119 
323 1 106.42 1.85949 3.93748 13.7658 
303 1 106.42 1.93957 0.190215 13.8187 
308 1 106.42 3.77698 2.04808 13.5945 
312 1 106.42 7.41627 1.52756 13.6711 
310 1 106.42 9.63539 2.20945 11.8777 
410 1 106.42 9.57859 2.05891 15.5298 
316 1 106.42 11.6004 2.17627 13.941 
311 1 106.42 9.73472 0.238604 13.644 
320 1 106.42 15.5352 2.25874 13.6947 
333 1 106.42 11.87 3.92589 11.9403 
315 1 106.42 13.7009 0.218473 13.5995 
417 1 106.42 15.3579 0.236958 15.5945 
304 1 106.42 19.4672 2.07197 14.0772 
318 1 106.42 17.7329 2.04419 11.9923 
319 1 106.42 17.6397 0.0482682 13.7161 
322 1 106.42 2.00838 5.75189 11.9642 
425 1 106.42 3.66138 4.08971 15.7761 
422 1 106.42 1.98338 6.08596 15.7144 
421 1 106.42 0.0773801 4.23696 15.5675 
327 1 106.42 5.72593 4.02252 14.0436 
328 1 106.42 4.09268 5.99004 13.6506 
329 1 106.42 7.67844 3.92061 12.229 
332 1 106.42 7.85359 6.2303 13.8998 
331 1 106.42 9.89778 4.29823 14.1051 
336 1 106.42 11.8439 5.8965 13.7711 
351 1 106.42 10.0169 7.61922 13.8251 
335 1 106.42 13.657 4.08182 13.8701 
355 1 106.42 13.7557 7.82407 13.7115 
437 1 106.42 15.611 3.9232 15.7147 
321 1 106.42 19.4791 3.97792 11.8975 
339 1 106.42 17.8034 4.19212 13.7033 
324 1 106.42 19.5212 6.18092 13.701 
340 1 106.42 15.8306 5.79979 13.8176 
343 1 106.42 1.8576 8.03564 13.5943 
441 1 106.42 0.270315 8.01965 15.6227 
442 1 106.42 1.98945 10.1773 15.5768 
344 1 106.42 0.0794225 9.90179 13.8584 
445 1 106.42 3.96893 7.89103 15.5268 
365 1 106.42 4.0502 11.4636 12.0169 
348 1 106.42 4.087 9.82252 13.7792 
347 1 106.42 6.03754 8.00988 13.7337 
367 1 106.42 6.07861 11.5293 13.6969 
465 1 106.42 4.38201 11.9187 15.5626 
369 1 106.42 7.87267 11.6479 11.8037 
350 1 106.42 9.97294 9.75177 11.9432 
352 1 106.42 8.00953 9.57865 13.702 
450 1 106.42 9.8143 9.67256 15.7303 
354 1 106.42 13.7651 9.63193 11.8985 
356 1 106.42 11.8261 9.98362 13.7664 
454 1 106.42 13.9774 9.94768 15.679 
377 1 106.42 15.581 11.8094 11.829 
453 1 106.42 12.0407 8.0868 15.4546 
357 1 106.42 15.8934 8.09147 11.8944 
360 1 106.42 15.7762 9.77767 13.8032 
359 1 106.42 17.8456 7.98817 13.7359 
379 1 106.42 17.8601 11.6864 13.7449 
458 1 106.42 17.7807 9.88568 15.6411 
363 1 106.42 2.26739 12.0066 13.8613 
383 1 106.42 1.90158 15.425 13.7273 
364 1 106.42 0.0504915 13.8475 13.6302 
485 1 106.42 3.75888 15.7042 15.5717 
368 1 106.42 4.19333 13.8132 13.8817 
372 1 106.42 7.39409 13.6495 13.6168 
370 1 106.42 9.71201 13.7053 12.0634 
371 1 106.42 9.75814 12.0226 13.8037 
391 1 106.42 9.63259 15.7832 13.6037 
469 1 106.42 7.9669 11.8881 15.633 
376 1 106.42 11.5353 13.8291 13.7616 
473 1 106.42 12.0138 11.8976 15.4116 
375 1 106.42 13.798 11.9082 13.6482 
474 1 106.42 13.8378 13.8987 15.3611 
380 1 106.42 15.8085 13.6335 13.4356 
399 1 106.42 17.5977 15.7183 13.7228 
481 1 106.42 19.4248 15.6245 15.5252 
478 1 106.42 17.4925 13.7829 15.5153 
382 1 106.42 1.89854 17.5486 11.8895 
388 1 106.42 3.76119 17.1523 13.6029 
384 1 106.42 0.141485 17.6994 13.8362 
482 1 106.42 1.99499 17.6563 15.6097 
307 1 106.42 5.4712 19.5973 13.5231 
387 1 106.42 6.02398 15.8184 13.8778 
392 1 106.42 7.73379 17.8376 13.6975 
493 1 106.42 11.5335 15.7381 15.6723 
490 1 106.42 9.61012 17.7303 15.67 
396 1 106.42 11.5596 17.6378 13.4935 
395 1 106.42 13.5272 15.6641 13.8157 
400 1 106.42 15.3483 17.8535 13.9835 
497 1 106.42 15.7333 15.8663 15.7024 
494 1 106.42 13.3274 17.8203 15.4314 
397 1 106.42 15.716 15.9592 12.109 
301 1 106.42 19.5879 19.5797 12.0708 
398 1 106.42 17.5538 17.6111 11.9475 
498 1 106.42 17.6494 17.7566 15.5773 
402 1 106.42 1.75705 1.85586 15.8861 
408 1 106.42 3.96324 2.00283 17.5858 
404 1 106.42 -0.0090708 1.99688 17.8908 
423 1 106.42 2.14002 3.89468 17.6171 
406 1 106.42 5.8392 2.09949 15.6389 
407 1 106.42 5.87338 0.0104129 17.5987 
412 1 106.42 7.6964 1.98562 17.6827 
413 1 106.42 11.4826 0.0961461 15.7823 
409 1 106.42 7.781 0.119719 15.8453 
416 1 106.42 11.6418 1.90868 17.5572 
431 1 106.42 9.70699 3.92443 17.931 
433 1 106.42 11.5524 3.75872 15.7774 
414 1 106.42 13.4836 1.94742 15.7821 
33 1 106.42 11.8975 3.85583 19.6889 
420 1 106.42 15.4428 1.90219 17.5363 
401 1 106.42 19.4574 -0.0408275 15.8025 
418 1 106.42 17.4958 1.94078 15.6796 
419 1 106.42 17.6899 0.0646742 17.6894 
439 1 106.42 17.664 3.84058 17.6936 
21 1 106.42 0.164228 4.04632 19.4498 
428 1 106.42 3.74475 6.01272 18.0159 
427 1 106.42 5.7189 4.0873 17.4256 
426 1 106.42 5.5265 6.18098 15.7922 
432 1 106.42 7.75123 5.80919 17.7163 
49 1 106.42 8.02567 7.75561 19.311 
429 1 106.42 7.94183 3.95046 15.67 
430 1 106.42 9.74154 5.94594 15.9668 
30 1 106.42 9.82607 5.77587 19.5993 
436 1 106.42 11.6984 5.88723 17.6897 
34 1 106.42 13.7987 5.83074 19.4072 
435 1 106.42 13.6314 3.93626 17.4931 
434 1 106.42 13.4227 5.82829 15.902 
455 1 106.42 13.6981 7.74354 17.7594 
37 1 106.42 15.6545 4.09111 19.5774 
438 1 106.42 17.7794 5.94739 15.8953 
440 1 106.42 15.9197 5.96381 17.6393 
38 1 106.42 17.671 6.06363 19.5934 
424 1 106.42 19.6967 5.85504 17.9939 
443 1 106.42 2.08368 8.01879 17.6402 
42 1 106.42 2.00166 9.68572 19.6557 
448 1 106.42 3.91986 9.82169 17.5975 
444 1 106.42 0.229175 9.79881 17.6188 
449 1 106.42 7.82559 7.98842 15.9052 
447 1 106.42 5.63629 7.98423 17.8976 
446 1 106.42 6.05999 9.79918 15.8138 
467 1 106.42 5.76465 11.3473 17.7669 
50 1 106.42 10.0746 9.52219 19.585 
451 1 106.42 10.0898 7.86004 17.4959 
452 1 106.42 7.94362 10.0435 17.6644 
456 1 106.42 11.8275 9.7605 17.5573 
54 1 106.42 13.6194 9.78464 19.4717 
460 1 106.42 15.5268 9.73054 17.7039 
475 1 106.42 13.8381 11.6945 17.4299 
457 1 106.42 15.9693 7.91122 15.7777 
459 1 106.42 17.8483 7.90819 17.584 
477 1 106.42 15.8441 11.6743 15.8594 
61 1 106.42 0.197484 11.9032 19.607 
462 1 106.42 1.95935 13.7867 15.8976 
463 1 106.42 2.32723 11.8232 17.7528 
468 1 106.42 3.80505 13.895 17.5795 
66 1 106.42 5.90203 13.5691 19.5145 
466 1 106.42 6.08939 13.8845 15.9384 
489 1 106.42 8.08761 15.5883 15.759 
470 1 106.42 9.91377 13.695 15.7575 
471 1 106.42 10.3173 11.8583 17.6443 
472 1 106.42 7.90633 13.4302 17.6095 
491 1 106.42 9.83829 15.4983 17.7949 
73 1 106.42 11.9591 11.9713 19.5541 
476 1 106.42 12.2425 13.8382 17.5212 
480 1 106.42 15.6133 13.6167 17.7565 
479 1 106.42 17.9356 11.7674 17.8765 
461 1 106.42 19.4777 12.1373 15.7319 
464 1 106.42 19.4579 13.8911 17.7564 
78 1 106.42 17.5233 13.7538 19.567 
499 1 106.42 17.5956 15.6105 17.5119 
5 1 106.42 3.9672 19.6618 19.4597 
81 1 106.42 0.0772036 15.9208 19.3432 
405 1 106.42 3.7875 19.4356 15.7796 
403 1 106.42 1.94179 19.6777 17.6206 
483 1 106.42 1.92645 15.7697 17.4381 
488 1 106.42 3.72962 17.4695 17.6051 
9 1 106.42 7.5819 19.4773 19.6376 
487 1 106.42 5.99184 15.8054 17.7157 
86 1 106.42 5.6362 17.7838 19.5761 
486 1 106.42 5.92325 17.464 15.7087 
13 1 106.42 11.6092 19.2744 19.6197 
411 1 106.42 9.57469 19.6508 17.9414 
492 1 106.42 7.77998 17.8291 17.5855 
90 1 106.42 9.64946 17.244 19.4581 
496 1 106.42 11.3957 17.7149 17.6748 
17 1 106.42 15.3876 19.5874 19.5135 
93 1 106.42 12.1637 15.6791 19.3065 
94 1 106.42 13.7166 17.5343 19.1604 
415 1 106.42 13.1639 19.4813 17.5955 
97 1 106.42 15.6265 15.7048 19.4334 
495 1 106.42 13.8153 15.7646 17.428 
500 1 106.42 15.53 18.1252 17.4517 
98 1 106.42 17.6741 17.8594 19.5396 
484 1 106.42 19.6588 17.4328 17.4228 
