ITEM: TIMESTEP
49500
ITEM: NUMBER OF ATOMS
501
ITEM: BOX BOUNDS pp pp pp
0.0000000000000000e+00 1.9629018200000001e+01
0.0000000000000000e+00 1.9629018200000001e+01
0.0000000000000000e+00 1.9629018200000001e+01
ITEM: ATOMS id type mass x y z 
3 1 106.42 1.92137 0.0411595 1.94269 
8 1 106.42 3.74538 1.95987 1.89366 
4 1 106.42 0.0705936 1.92588 2.04204 
105 1 106.42 3.97274 0.145348 3.68188 
2 1 106.42 1.64737 1.89082 0.115564 
27 1 106.42 5.68833 3.59789 1.5453 
5 1 106.42 4.04641 0.104692 0.0166686 
12 1 106.42 7.93969 2.06145 2.16007 
10 1 106.42 9.38415 1.93701 -0.0345649 
110 1 106.42 10.0016 2.03351 3.74118 
33 1 106.42 11.6132 3.87534 0.0667759 
109 1 106.42 7.93739 0.179193 3.8276 
11 1 106.42 9.89003 0.245475 1.97286 
16 1 106.42 11.7892 1.95352 1.85498 
20 1 106.42 15.7121 1.92085 1.7079 
37 1 106.42 15.6232 3.86662 0.203426 
114 1 106.42 13.698 1.79374 3.82686 
18 1 106.42 17.9918 2.0783 0.0201416 
118 1 106.42 17.6665 2.02929 3.84355 
101 1 106.42 19.5363 0.0199387 3.82783 
19 1 106.42 17.6698 0.178237 1.90104 
23 1 106.42 2.08298 4.00174 1.95885 
22 1 106.42 1.91894 5.88064 -0.019957 
24 1 106.42 0.111112 5.68577 2.03662 
45 1 106.42 3.83162 7.769 0.13195 
145 1 106.42 3.87035 7.70276 3.86515 
28 1 106.42 4.04496 5.71596 2.09191 
32 1 106.42 7.92782 5.71657 2.09006 
47 1 106.42 6.12798 7.80162 2.07847 
49 1 106.42 7.77994 7.7078 0.400397 
31 1 106.42 9.93616 3.99563 1.97877 
30 1 106.42 10.0099 5.88955 -0.0134762 
35 1 106.42 13.7291 4.16973 2.12526 
36 1 106.42 11.7843 6.0736 1.94179 
133 1 106.42 12.075 4.03053 3.93445 
134 1 106.42 13.9054 6.05091 3.95272 
34 1 106.42 13.6284 6.07952 0.203044 
21 1 106.42 19.6425 3.96149 0.0401454 
40 1 106.42 15.8683 5.79417 2.08077 
39 1 106.42 17.6434 4.03178 2.12261 
59 1 106.42 17.8275 7.78684 1.89775 
38 1 106.42 17.8111 5.91555 0.184919 
141 1 106.42 19.5218 7.88233 3.73956 
138 1 106.42 17.5529 6.02909 3.72366 
501 2 1.01 1.8294 8.01345 -0.0894664 
41 1 106.42 0.0116404 8.04393 0.166033 
43 1 106.42 1.93309 8.13259 1.86972 
63 1 106.42 1.96671 11.6832 2.08913 
48 1 106.42 4.14324 9.55079 2.14001 
67 1 106.42 5.81363 11.5783 1.63135 
46 1 106.42 5.99032 9.57718 0.0135393 
169 1 106.42 7.63305 11.7112 3.92923 
146 1 106.42 6.05133 9.59806 3.83559 
51 1 106.42 9.94789 8.00593 1.89448 
69 1 106.42 7.98497 11.4191 0.253237 
52 1 106.42 8.04981 9.74664 2.27241 
56 1 106.42 11.741 9.8728 2.18724 
55 1 106.42 14.1024 7.9713 2.10727 
75 1 106.42 13.8682 11.5441 1.88808 
154 1 106.42 13.8856 9.80458 3.89586 
54 1 106.42 13.9182 9.67621 0.0594319 
44 1 106.42 19.5949 9.82463 2.20473 
77 1 106.42 15.8855 11.6746 -0.00980018 
60 1 106.42 15.8402 9.76512 2.14461 
161 1 106.42 19.4159 11.6607 3.90223 
57 1 106.42 15.8406 7.8598 0.148643 
58 1 106.42 17.7424 9.85844 0.366858 
162 1 106.42 2.06266 13.8812 3.62129 
68 1 106.42 3.6584 13.6843 1.85407 
64 1 106.42 0.0262767 13.7306 1.99958 
166 1 106.42 5.80431 13.6602 3.93375 
72 1 106.42 7.75751 13.5726 1.82882 
189 1 106.42 7.81174 15.6562 3.83333 
66 1 106.42 5.87208 13.8768 0.143459 
71 1 106.42 9.84491 11.891 2.25721 
91 1 106.42 9.65576 15.323 1.96517 
193 1 106.42 11.9218 15.5382 3.74325 
76 1 106.42 11.8984 13.3852 1.89629 
95 1 106.42 14.0645 15.515 1.85842 
174 1 106.42 13.7034 13.7666 3.85359 
79 1 106.42 17.5164 11.927 2.03539 
80 1 106.42 15.8097 13.5242 1.88312 
99 1 106.42 17.6145 15.5579 1.9218 
83 1 106.42 1.78889 15.823 2.07423 
185 1 106.42 3.80935 15.922 3.60976 
88 1 106.42 3.73474 17.7465 1.8374 
182 1 106.42 1.77654 17.8978 3.7248 
85 1 106.42 3.92594 15.7156 0.0972995 
7 1 106.42 5.81886 19.5951 1.87566 
87 1 106.42 5.77316 15.7692 2.00246 
186 1 106.42 5.84904 17.8332 3.82679 
92 1 106.42 7.91884 17.4958 1.82568 
9 1 106.42 7.88606 19.5457 0.206963 
190 1 106.42 9.656 17.6165 3.84929 
90 1 106.42 9.99669 17.7759 0.175686 
113 1 106.42 11.5439 19.5052 3.90449 
93 1 106.42 11.6296 15.8224 0.114228 
96 1 106.42 11.7854 17.6397 2.12871 
15 1 106.42 13.6356 19.5898 2.06366 
117 1 106.42 15.6802 19.6042 3.80351 
194 1 106.42 13.9075 17.464 3.84018 
84 1 106.42 19.5828 17.9607 1.65534 
181 1 106.42 19.3474 15.8348 3.82649 
100 1 106.42 15.7868 17.8447 1.79791 
198 1 106.42 17.5871 17.6704 3.88904 
98 1 106.42 17.5535 17.4539 0.026501 
102 1 106.42 1.76651 2.06271 4.04749 
104 1 106.42 0.359071 2.24714 5.97151 
108 1 106.42 3.90461 2.18024 5.86062 
103 1 106.42 2.06432 0.26687 6.09579 
106 1 106.42 5.94985 2.02951 3.91835 
127 1 106.42 6.01132 3.59273 5.86917 
206 1 106.42 5.87382 1.75814 7.76024 
125 1 106.42 3.9598 3.78198 4.04583 
107 1 106.42 5.75056 0.1118 5.67927 
129 1 106.42 8.02244 3.82416 4.0283 
112 1 106.42 7.90403 1.81471 5.81703 
131 1 106.42 10.0454 3.78455 5.69812 
213 1 106.42 11.6121 0.0692862 7.89522 
210 1 106.42 9.95647 2.13557 7.67048 
137 1 106.42 15.3894 3.75945 3.9937 
116 1 106.42 11.9242 1.89007 5.57663 
135 1 106.42 13.6701 3.7077 5.97459 
214 1 106.42 13.8584 1.80674 7.66883 
120 1 106.42 15.8637 1.97476 5.64114 
139 1 106.42 17.8782 3.80321 5.82484 
119 1 106.42 17.8743 0.0634608 6.01578 
122 1 106.42 2.22681 5.77746 3.97817 
123 1 106.42 2.0536 4.26797 6.15945 
124 1 106.42 0.032445 5.80376 6.02066 
143 1 106.42 1.7681 7.53255 5.8846 
126 1 106.42 6.00046 5.95228 4.07983 
128 1 106.42 4.23218 6.11379 6.22064 
225 1 106.42 4.15259 4.14057 7.76028 
226 1 106.42 6.0649 5.71379 7.76333 
130 1 106.42 10.0656 5.93866 3.96777 
149 1 106.42 8.05831 7.84139 4.36348 
132 1 106.42 8.14649 5.62489 6.25494 
136 1 106.42 11.8719 6.14276 6.02064 
234 1 106.42 13.9366 5.69009 7.86557 
155 1 106.42 13.8778 7.78377 6.12882 
121 1 106.42 19.6476 4.06406 4.03764 
140 1 106.42 15.7833 5.72163 5.79834 
159 1 106.42 17.6941 7.71377 6.04353 
237 1 106.42 15.7216 3.98252 7.69027 
142 1 106.42 2.17076 9.82667 3.97942 
144 1 106.42 0.077151 9.73523 6.00575 
261 1 106.42 0.12257 11.8425 7.73197 
242 1 106.42 1.93007 9.7085 7.83934 
147 1 106.42 6.317 7.88512 6.10089 
148 1 106.42 4.14868 9.80522 5.9108 
167 1 106.42 5.95805 11.5052 5.903 
151 1 106.42 9.95805 7.92271 6.16257 
150 1 106.42 9.91651 9.64819 4.16412 
152 1 106.42 7.8495 9.81266 5.91461 
171 1 106.42 9.85514 11.6555 5.67386 
153 1 106.42 11.9012 7.92654 4.09628 
156 1 106.42 11.9401 9.76174 5.88837 
160 1 106.42 15.4996 9.85342 6.17059 
177 1 106.42 15.9533 11.6849 4.1583 
158 1 106.42 17.5607 9.59694 4.18407 
157 1 106.42 15.7414 7.89391 4.24301 
179 1 106.42 17.8048 11.7158 6.09157 
163 1 106.42 2.07893 11.842 5.68086 
262 1 106.42 2.14691 13.3316 7.7325 
168 1 106.42 3.89883 13.8896 5.80776 
281 1 106.42 0.163305 15.2822 7.69622 
183 1 106.42 1.67365 15.6883 5.68918 
285 1 106.42 3.74524 15.6333 7.69125 
165 1 106.42 4.12774 11.7531 3.90819 
266 1 106.42 5.88076 13.7873 7.66229 
170 1 106.42 9.85119 13.564 4.02362 
173 1 106.42 11.7849 11.79 4.17492 
172 1 106.42 7.91105 13.6703 5.91565 
270 1 106.42 9.64789 13.8313 7.82411 
176 1 106.42 11.6433 13.6336 6.09775 
191 1 106.42 9.82488 15.4983 5.56161 
197 1 106.42 15.6497 15.5542 4.11874 
175 1 106.42 13.6599 11.7596 5.92222 
195 1 106.42 13.6065 15.3714 5.95166 
293 1 106.42 11.8576 15.5386 7.75143 
178 1 106.42 17.5566 13.754 4.02023 
180 1 106.42 15.7947 13.4586 5.7851 
164 1 106.42 19.6318 13.5761 5.65011 
199 1 106.42 17.4395 15.5894 5.97927 
205 1 106.42 3.99799 19.3906 7.88698 
188 1 106.42 3.75986 17.6268 5.47132 
201 1 106.42 0.260443 19.6029 7.74728 
282 1 106.42 2.13402 17.4632 7.59174 
187 1 106.42 5.83153 15.8761 5.87241 
289 1 106.42 7.78064 15.8544 7.67389 
192 1 106.42 7.75376 17.691 5.70028 
209 1 106.42 7.84875 19.4094 7.56224 
111 1 106.42 9.88251 19.5081 5.9055 
290 1 106.42 9.91301 17.3224 7.637 
115 1 106.42 13.5542 19.3357 5.82049 
196 1 106.42 11.8941 17.3826 5.68659 
200 1 106.42 15.679 17.679 5.93043 
297 1 106.42 15.3595 15.7741 7.78431 
184 1 106.42 19.5585 17.7158 5.78898 
202 1 106.42 2.13995 2.49985 7.99715 
204 1 106.42 0.0558132 2.00481 9.89958 
223 1 106.42 1.85353 3.74089 10.2152 
203 1 106.42 1.99398 0.430634 9.96814 
305 1 106.42 3.92963 0.118372 11.7738 
229 1 106.42 7.70158 3.64619 7.88133 
208 1 106.42 4.06662 2.14916 9.66705 
227 1 106.42 5.71075 3.81707 9.83104 
212 1 106.42 7.77598 1.68375 9.58563 
231 1 106.42 10.0544 3.94066 9.88612 
310 1 106.42 10.0546 1.9486 11.4678 
211 1 106.42 9.78035 0.0539318 9.6694 
309 1 106.42 7.85992 0.132749 11.7328 
329 1 106.42 7.88075 3.6757 11.5497 
233 1 106.42 12.0662 3.87818 7.92726 
216 1 106.42 11.8622 2.016 9.68786 
220 1 106.42 15.6902 1.65674 9.77215 
235 1 106.42 13.9453 3.70046 9.79987 
215 1 106.42 13.4455 0.170665 9.89851 
218 1 106.42 17.652 1.83243 8.00679 
239 1 106.42 17.3102 3.87332 9.83158 
301 1 106.42 19.4858 0.0562124 11.6498 
318 1 106.42 17.4732 1.96493 11.7482 
222 1 106.42 1.87082 5.78524 8.13677 
228 1 106.42 3.81288 5.76582 9.9499 
241 1 106.42 0.105418 7.67714 7.9545 
247 1 106.42 5.57485 7.64051 9.8899 
232 1 106.42 7.79403 5.85356 10.0553 
249 1 106.42 7.64825 7.7 8.33763 
230 1 106.42 9.89368 5.5875 7.94383 
253 1 106.42 11.7958 7.76902 7.94692 
251 1 106.42 9.75601 7.58653 9.84072 
236 1 106.42 11.9294 5.79429 9.68082 
240 1 106.42 15.5061 5.67361 9.83336 
221 1 106.42 19.627 3.97506 8.04476 
238 1 106.42 17.5576 5.81234 7.93081 
224 1 106.42 19.4694 6.00871 10.1113 
243 1 106.42 1.95341 7.87368 9.72398 
342 1 106.42 2.07501 9.77739 11.4564 
265 1 106.42 4.33608 11.4582 8.00822 
245 1 106.42 4.13319 7.98767 7.90918 
246 1 106.42 6.14755 9.94073 8.07759 
248 1 106.42 3.99651 9.73073 9.80488 
346 1 106.42 5.88698 9.79118 11.6624 
365 1 106.42 3.98208 11.7159 11.5504 
250 1 106.42 9.46151 9.72419 8.08508 
252 1 106.42 7.80537 9.51052 10.0676 
350 1 106.42 9.7848 9.80224 11.7889 
273 1 106.42 11.6711 11.6338 7.923 
257 1 106.42 15.6007 7.90247 8.10338 
255 1 106.42 13.6174 7.85462 10.1231 
256 1 106.42 11.7911 9.76609 9.68798 
254 1 106.42 13.7834 9.74361 7.86228 
260 1 106.42 15.7394 9.91964 9.74402 
354 1 106.42 13.5544 10.1153 11.6027 
244 1 106.42 19.6193 9.75824 9.62388 
258 1 106.42 17.8031 9.70161 7.86968 
259 1 106.42 17.6592 7.88774 9.87799 
358 1 106.42 17.8168 9.85178 11.5852 
357 1 106.42 15.692 8.07915 11.627 
263 1 106.42 2.16182 11.7997 9.6769 
264 1 106.42 0.151486 13.6044 9.84627 
283 1 106.42 2.18912 15.4516 9.58491 
267 1 106.42 6.20015 11.8112 9.68212 
268 1 106.42 4.40791 13.6222 9.74832 
272 1 106.42 7.77342 14.011 9.62192 
389 1 106.42 7.57423 15.7252 11.6531 
269 1 106.42 8.15142 12.0632 7.94633 
271 1 106.42 9.83653 11.9302 9.85607 
291 1 106.42 10.0153 15.7345 9.74556 
370 1 106.42 9.904 13.7823 11.6532 
373 1 106.42 11.5685 11.7448 11.5798 
276 1 106.42 11.8689 13.745 9.72644 
275 1 106.42 13.5973 11.8207 9.55738 
274 1 106.42 13.9626 13.8419 7.87786 
280 1 106.42 15.527 14.1166 9.85194 
295 1 106.42 13.3663 15.6961 9.99332 
278 1 106.42 17.4424 13.8313 8.00041 
377 1 106.42 15.8163 11.8998 11.4737 
279 1 106.42 18.033 11.8551 9.79366 
277 1 106.42 15.7306 11.9042 7.98931 
378 1 106.42 17.5451 14.1273 11.6728 
288 1 106.42 3.67617 17.9197 9.77224 
284 1 106.42 0.14453 17.4692 9.34165 
382 1 106.42 1.80983 17.6576 11.6253 
286 1 106.42 5.52831 17.5323 7.79597 
207 1 106.42 5.7368 19.4883 9.92065 
287 1 106.42 5.56545 15.816 9.61748 
292 1 106.42 7.83226 17.5175 9.66812 
386 1 106.42 5.61058 17.9064 11.7466 
385 1 106.42 4.0973 15.8692 11.5965 
294 1 106.42 13.5576 17.8008 8.03412 
296 1 106.42 11.8291 17.9081 9.84639 
300 1 106.42 15.4245 17.7844 9.76142 
397 1 106.42 15.584 15.7952 11.5096 
217 1 106.42 15.7641 19.5967 7.95734 
298 1 106.42 17.664 17.6096 7.88149 
381 1 106.42 19.5834 15.7686 11.6932 
219 1 106.42 17.7675 19.3978 9.8613 
299 1 106.42 17.5712 16.0225 9.64617 
398 1 106.42 17.35 17.6773 11.6352 
302 1 106.42 2.21696 2.10078 11.9636 
402 1 106.42 1.76495 2.32488 15.6313 
401 1 106.42 0.0403037 0.134863 15.2657 
306 1 106.42 5.92293 2.05174 11.9232 
308 1 106.42 3.99708 1.80776 13.8841 
312 1 106.42 7.83046 2.05659 13.8679 
327 1 106.42 6.00105 3.81997 13.6027 
307 1 106.42 6.17531 0.276093 13.6794 
316 1 106.42 11.8261 1.98237 14.0054 
311 1 106.42 9.62864 0.152761 13.9756 
331 1 106.42 9.88403 3.43121 13.8717 
313 1 106.42 11.9018 0.0950684 11.9718 
314 1 106.42 13.4868 1.98914 11.9046 
315 1 106.42 13.7594 -0.0260838 13.9374 
335 1 106.42 13.9157 3.92274 13.795 
317 1 106.42 15.4594 0.21966 12.0292 
320 1 106.42 15.6573 1.87526 13.902 
304 1 106.42 19.5197 2.1247 13.524 
319 1 106.42 17.7083 0.0938025 13.6524 
417 1 106.42 15.7241 0.0497941 15.5807 
325 1 106.42 3.71428 4.00242 11.8195 
323 1 106.42 1.8504 3.98047 13.7889 
322 1 106.42 1.80808 6.20861 11.7822 
328 1 106.42 3.8131 5.93888 13.7165 
343 1 106.42 1.77718 7.88542 13.8803 
349 1 106.42 7.73011 7.54973 12.0469 
326 1 106.42 5.6887 5.73773 11.8251 
347 1 106.42 5.67626 7.78439 13.7583 
426 1 106.42 5.93674 5.7184 15.4815 
332 1 106.42 8.13927 5.55417 13.7462 
330 1 106.42 9.98157 5.81113 11.803 
353 1 106.42 11.6647 7.70317 11.9053 
430 1 106.42 9.93324 5.56601 15.3394 
449 1 106.42 8.0394 7.75537 15.5183 
337 1 106.42 15.6603 3.97404 11.9926 
333 1 106.42 11.885 3.935 11.8564 
334 1 106.42 13.579 5.70745 12.0015 
336 1 106.42 11.9688 5.93348 13.8514 
341 1 106.42 19.4601 7.81926 12.1109 
338 1 106.42 17.5364 6.03692 12.0684 
321 1 106.42 19.1853 4.10417 11.8013 
339 1 106.42 17.5446 3.9031 13.8326 
324 1 106.42 19.4153 5.68798 14.0397 
340 1 106.42 15.7477 6.07207 13.8449 
345 1 106.42 3.77943 7.92812 11.8976 
363 1 106.42 2.10327 11.6124 13.6325 
465 1 106.42 3.89988 11.5409 15.664 
348 1 106.42 3.99326 9.82572 13.6655 
352 1 106.42 7.49971 9.70557 13.7701 
469 1 106.42 7.65292 11.5451 15.5136 
446 1 106.42 5.75653 9.77544 15.5632 
351 1 106.42 9.91125 8.02706 13.6493 
371 1 106.42 9.90922 11.7305 13.6088 
356 1 106.42 11.957 9.63526 13.6972 
355 1 106.42 13.9645 8.08771 13.4918 
454 1 106.42 13.7083 9.98988 15.6516 
473 1 106.42 11.7738 11.6579 15.6553 
344 1 106.42 19.548 9.61471 13.6805 
360 1 106.42 15.832 9.89889 13.3767 
359 1 106.42 17.5241 7.81567 13.8656 
461 1 106.42 19.5165 11.6368 15.2612 
458 1 106.42 17.5839 9.98538 15.5007 
361 1 106.42 0.311595 11.9651 11.8046 
362 1 106.42 2.11792 14.1548 11.7852 
462 1 106.42 1.98416 14.0184 15.249 
367 1 106.42 5.70999 11.9525 13.786 
366 1 106.42 6.17979 13.7828 12.0744 
368 1 106.42 4.08279 13.8788 13.9078 
466 1 106.42 5.98929 13.7248 15.3985 
369 1 106.42 7.96438 11.7779 11.8406 
372 1 106.42 8.07663 13.5826 13.6843 
470 1 106.42 9.91186 13.3917 15.7559 
374 1 106.42 13.6885 13.5392 11.7772 
376 1 106.42 11.7685 13.7849 13.9528 
375 1 106.42 13.8184 11.8852 13.7187 
380 1 106.42 15.5277 14.031 13.4572 
379 1 106.42 17.606 12.1479 13.42 
364 1 106.42 19.5674 13.9401 13.614 
478 1 106.42 17.6286 13.8768 15.2648 
477 1 106.42 15.775 11.9362 15.5592 
399 1 106.42 17.6663 15.6661 13.5348 
303 1 106.42 1.71039 19.5865 13.5627 
383 1 106.42 2.02569 15.9732 13.6733 
482 1 106.42 1.83372 17.6309 15.6698 
388 1 106.42 3.89452 17.8866 13.953 
387 1 106.42 5.70717 16.0897 13.5014 
390 1 106.42 9.93297 18.0129 12.0161 
393 1 106.42 11.6101 15.8574 12.0979 
392 1 106.42 7.95011 17.5532 13.4814 
391 1 106.42 9.59068 15.6294 13.9166 
396 1 106.42 11.5942 17.7292 14.0551 
493 1 106.42 11.6896 15.8591 15.625 
394 1 106.42 13.7523 17.7184 11.9803 
395 1 106.42 13.5735 15.9386 13.9199 
400 1 106.42 15.66 17.6894 13.7399 
497 1 106.42 15.5271 15.7412 15.5311 
481 1 106.42 19.501 15.8345 15.6511 
384 1 106.42 19.4649 17.7363 13.7193 
423 1 106.42 1.76296 3.93448 17.6952 
403 1 106.42 1.81067 0.104968 17.5405 
408 1 106.42 3.58523 2.04962 17.6695 
405 1 106.42 3.53406 0.1629 15.7038 
406 1 106.42 5.95053 2.11135 15.7955 
429 1 106.42 7.77465 3.86702 15.9064 
6 1 106.42 5.82262 1.95889 19.53 
412 1 106.42 7.81473 1.86356 17.6567 
409 1 106.42 7.76741 -0.00237654 15.738 
413 1 106.42 11.826 0.0978342 15.9926 
410 1 106.42 9.88822 1.96637 15.9317 
416 1 106.42 11.8126 1.95385 17.6403 
431 1 106.42 9.81473 3.90596 17.6007 
14 1 106.42 13.7074 1.86645 19.412 
414 1 106.42 13.8158 2.26959 16.0038 
415 1 106.42 14.0041 0.0169434 17.4684 
418 1 106.42 17.5841 2.0779 15.8865 
420 1 106.42 15.976 2.00562 17.8024 
404 1 106.42 19.4698 1.7863 17.7428 
445 1 106.42 3.85706 7.68535 15.8781 
422 1 106.42 1.92764 5.86311 15.8935 
424 1 106.42 0.0613156 5.99363 17.9058 
25 1 106.42 3.92657 4.09323 19.3293 
425 1 106.42 4.05027 4.02946 15.7663 
29 1 106.42 7.81631 4.189 19.4781 
428 1 106.42 4.07514 5.79805 17.5874 
26 1 106.42 5.73498 6.03216 19.4686 
427 1 106.42 5.96801 3.97642 17.8147 
453 1 106.42 11.6558 7.4694 16.0188 
432 1 106.42 8.27782 5.99519 17.6665 
451 1 106.42 9.82964 7.77894 17.7725 
435 1 106.42 13.9152 4.09304 17.8922 
433 1 106.42 12.0202 3.99578 15.7056 
436 1 106.42 11.9487 5.91331 17.9568 
434 1 106.42 13.7509 5.82815 15.9123 
440 1 106.42 15.5928 6.01699 17.8098 
439 1 106.42 17.6585 4.23492 17.8439 
437 1 106.42 15.7344 4.02138 15.8262 
421 1 106.42 19.3669 4.04636 15.7436 
438 1 106.42 17.5474 6.11546 15.9598 
42 1 106.42 1.9593 10.3375 19.3093 
442 1 106.42 1.91034 9.55004 15.7466 
443 1 106.42 1.83683 7.99254 17.8699 
447 1 106.42 6.06395 7.89282 17.3182 
448 1 106.42 3.95113 9.8107 17.5628 
65 1 106.42 4.12077 11.6707 19.5981 
467 1 106.42 5.91698 11.7041 17.6634 
450 1 106.42 9.90337 9.67063 15.7029 
50 1 106.42 9.80131 9.72898 19.6561 
452 1 106.42 7.81053 9.56241 17.4274 
53 1 106.42 11.8966 8.17185 19.5491 
455 1 106.42 13.8279 7.98964 17.7164 
456 1 106.42 11.7991 9.96271 17.6394 
460 1 106.42 15.5295 9.95769 17.6116 
73 1 106.42 11.8896 11.562 19.5824 
457 1 106.42 15.9036 8.00057 15.757 
441 1 106.42 19.4203 8.08092 15.7856 
444 1 106.42 19.2815 10.126 17.7032 
459 1 106.42 17.708 7.88077 17.9032 
62 1 106.42 2.14598 13.6302 19.2929 
463 1 106.42 1.96667 11.9501 17.0647 
81 1 106.42 0.0950818 15.5864 19.499 
483 1 106.42 1.95893 15.6134 17.3344 
468 1 106.42 4.01292 13.651 17.5692 
472 1 106.42 7.63158 13.8848 17.5847 
89 1 106.42 7.77892 15.5801 19.5457 
70 1 106.42 9.70729 13.5751 19.6008 
471 1 106.42 9.47727 11.8022 17.7119 
476 1 106.42 11.5875 13.6015 17.5639 
474 1 106.42 13.4484 13.5138 15.8798 
475 1 106.42 13.9448 11.7389 17.7591 
74 1 106.42 13.6302 13.8749 19.6329 
480 1 106.42 15.6455 14.1442 17.6424 
495 1 106.42 13.3049 15.5244 17.8131 
479 1 106.42 17.5797 12.0525 17.3067 
61 1 106.42 19.442 12.0467 19.6379 
464 1 106.42 19.6882 13.5453 17.3825 
78 1 106.42 17.4696 13.8223 19.586 
97 1 106.42 15.7588 15.7201 19.4869 
499 1 106.42 17.8238 15.4566 17.397 
82 1 106.42 1.94042 17.2839 19.3519 
488 1 106.42 3.67871 17.7869 17.6072 
484 1 106.42 0.127082 17.5691 17.5127 
86 1 106.42 6.01014 17.602 19.4944 
485 1 106.42 3.95967 15.773 15.7925 
486 1 106.42 5.7443 17.7468 15.9108 
487 1 106.42 5.72489 15.7991 17.7402 
489 1 106.42 7.64785 15.7294 15.7853 
407 1 106.42 6.04457 19.5975 17.8964 
490 1 106.42 9.69764 17.6977 15.9423 
411 1 106.42 9.84845 19.544 17.6628 
491 1 106.42 9.82352 15.8811 17.4716 
492 1 106.42 8.00943 17.8545 17.897 
13 1 106.42 11.9418 19.6367 19.5111 
494 1 106.42 13.8161 17.84 15.9023 
496 1 106.42 11.8782 17.7306 17.7139 
94 1 106.42 13.6395 17.5241 19.5806 
500 1 106.42 15.5445 17.6135 17.8434 
498 1 106.42 17.7551 17.6202 15.7139 
1 1 106.42 19.5489 19.5501 19.6243 
419 1 106.42 17.5351 19.5562 17.4092 
17 1 106.42 15.6153 19.3643 19.3991 
