ITEM: TIMESTEP
52100
ITEM: NUMBER OF ATOMS
501
ITEM: BOX BOUNDS pp pp pp
0.0000000000000000e+00 1.9629018200000001e+01
0.0000000000000000e+00 1.9629018200000001e+01
0.0000000000000000e+00 1.9629018200000001e+01
ITEM: ATOMS id type mass x y z 
4 1 106.42 0.0181954 1.93653 1.89616 
102 1 106.42 2.16415 1.86641 3.79838 
8 1 106.42 3.90173 1.85952 1.85964 
27 1 106.42 6.02506 3.59334 2.05105 
106 1 106.42 5.86189 1.87664 3.86692 
12 1 106.42 7.89783 1.80428 1.87696 
7 1 106.42 5.95147 0.0626146 1.79456 
125 1 106.42 3.92458 3.78479 3.66174 
11 1 106.42 9.49432 0.209936 1.91655 
31 1 106.42 9.76982 3.95852 2.1521 
113 1 106.42 11.611 0.0182548 3.97508 
10 1 106.42 10.3442 2.23114 0.0533429 
13 1 106.42 11.6319 0.0155018 0.0321751 
29 1 106.42 8.10834 3.7203 0.0432164 
16 1 106.42 11.8919 1.655 2.05204 
114 1 106.42 13.6585 1.97461 4.11534 
15 1 106.42 13.7863 0.174226 1.83406 
20 1 106.42 15.8417 2.06533 2.11998 
18 1 106.42 17.6821 2.08689 0.233195 
137 1 106.42 15.9365 4.03139 3.9068 
23 1 106.42 1.76423 4.09408 2.11286 
122 1 106.42 1.86909 5.91648 3.90647 
28 1 106.42 4.10609 5.83165 1.92469 
26 1 106.42 6.06921 5.79269 19.423 
126 1 106.42 5.91012 6.11918 3.93967 
25 1 106.42 4.06419 4.1887 0.16643 
32 1 106.42 8.02024 6.15658 2.16175 
30 1 106.42 9.58279 5.95857 0.0215647 
53 1 106.42 11.504 7.73039 0.149817 
33 1 106.42 12.1177 4.11004 -0.0316597 
35 1 106.42 13.9317 4.0004 2.08838 
36 1 106.42 11.9094 5.79541 2.09833 
40 1 106.42 15.6619 5.99591 1.81385 
134 1 106.42 13.7637 5.96758 3.86335 
39 1 106.42 17.9581 4.10659 1.75352 
24 1 106.42 19.5782 6.06353 1.96064 
21 1 106.42 19.5744 4.03262 -0.0299177 
38 1 106.42 17.4443 6.1156 -0.0291074 
138 1 106.42 17.7378 5.77795 3.88452 
59 1 106.42 17.6305 7.72164 2.12629 
43 1 106.42 1.88985 7.76829 1.81488 
63 1 106.42 1.8235 11.6884 1.85051 
165 1 106.42 3.71421 11.4273 3.87567 
145 1 106.42 3.9939 7.99746 3.68282 
142 1 106.42 1.79853 9.597 3.82296 
47 1 106.42 5.83775 7.95044 1.91166 
48 1 106.42 3.92724 9.88105 1.61536 
67 1 106.42 5.98285 11.7357 2.02423 
52 1 106.42 7.93977 9.61153 1.89512 
149 1 106.42 7.67987 8.05273 3.89151 
46 1 106.42 5.86743 9.88629 0.0371026 
51 1 106.42 9.93483 7.8656 2.10195 
71 1 106.42 9.31857 11.8851 2.02786 
50 1 106.42 9.7463 9.67297 0.0232357 
150 1 106.42 9.83892 9.7911 3.81343 
173 1 106.42 11.6114 11.7078 3.89714 
73 1 106.42 11.6523 11.7438 0.232607 
55 1 106.42 13.8722 7.77651 1.88689 
56 1 106.42 11.9946 9.62976 2.09166 
60 1 106.42 15.5577 9.83989 2.04588 
57 1 106.42 15.8371 7.98376 0.0604464 
44 1 106.42 19.6325 9.71736 1.87554 
79 1 106.42 17.451 11.5284 1.82206 
158 1 106.42 17.8024 9.9521 3.74516 
162 1 106.42 1.8473 13.619 3.83795 
185 1 106.42 3.78986 15.6971 3.89425 
62 1 106.42 1.74783 13.5915 0.0277858 
83 1 106.42 2.12398 15.2964 1.87605 
68 1 106.42 3.90734 13.3657 2.00888 
72 1 106.42 7.79419 13.7164 1.90357 
87 1 106.42 5.74625 15.4452 1.96845 
89 1 106.42 7.64868 15.8257 -0.0483611 
70 1 106.42 9.91881 13.7725 0.26607 
76 1 106.42 11.7936 13.6054 2.12409 
170 1 106.42 9.731 14.0535 3.72232 
75 1 106.42 13.79 11.9138 2.33049 
74 1 106.42 13.5532 13.8579 0.165381 
93 1 106.42 11.7423 15.7031 0.0961527 
64 1 106.42 19.2977 13.6447 2.2034 
80 1 106.42 15.6623 13.6875 1.87432 
99 1 106.42 17.7799 15.5307 1.97573 
197 1 106.42 15.6962 15.6895 3.76651 
78 1 106.42 17.7482 13.6234 0.0354389 
105 1 106.42 3.82823 19.3041 3.61694 
3 1 106.42 1.71917 19.5144 1.80974 
88 1 106.42 3.98206 17.3522 1.87835 
182 1 106.42 1.96169 17.5324 3.86058 
5 1 106.42 3.67842 19.3173 0.281636 
82 1 106.42 1.67427 17.5793 0.319787 
189 1 106.42 7.88434 15.6774 3.8638 
186 1 106.42 5.98013 17.7542 3.82508 
86 1 106.42 6.017 17.7587 -0.00942739 
91 1 106.42 9.81479 15.805 1.70439 
92 1 106.42 7.90272 17.7353 1.91938 
96 1 106.42 11.7072 17.6178 1.80701 
95 1 106.42 13.4391 15.6636 2.28338 
194 1 106.42 13.3856 17.7836 3.79947 
94 1 106.42 13.7607 17.7101 0.138242 
19 1 106.42 17.9047 19.6459 2.1356 
117 1 106.42 15.9294 19.3269 3.87303 
84 1 106.42 0.124757 17.3634 2.25422 
100 1 106.42 15.5505 17.4465 2.02593 
17 1 106.42 16.0479 19.574 0.385033 
98 1 106.42 17.6003 17.3726 0.224522 
121 1 106.42 19.5526 3.85138 4.01096 
123 1 106.42 2.09109 3.28496 5.78328 
101 1 106.42 0.054355 0.240885 3.99613 
202 1 106.42 1.9584 1.73722 7.87816 
108 1 106.42 4.3789 2.15365 5.71752 
112 1 106.42 7.57883 2.20501 5.82938 
129 1 106.42 7.68887 3.79556 3.90035 
209 1 106.42 7.91192 0.399084 7.77142 
109 1 106.42 7.80719 0.109659 3.88113 
110 1 106.42 9.76669 2.06228 3.92966 
131 1 106.42 9.52725 3.82313 6.05043 
111 1 106.42 9.83321 0.0385182 5.84078 
116 1 106.42 11.6862 2.09197 5.86247 
135 1 106.42 13.66 3.96759 5.91157 
120 1 106.42 15.626 2.09213 5.97271 
133 1 106.42 11.6816 3.90582 4.4854 
115 1 106.42 13.6895 0.135954 5.70851 
217 1 106.42 15.5482 0.131247 7.54121 
118 1 106.42 17.6463 1.98132 3.89969 
104 1 106.42 19.4122 2.06766 5.83185 
139 1 106.42 17.5067 4.09213 6.07112 
201 1 106.42 19.5208 0.0543883 7.4939 
143 1 106.42 2.02871 7.96579 5.71018 
128 1 106.42 3.79963 5.77451 5.84044 
124 1 106.42 0.289376 5.83721 6.00132 
222 1 106.42 2.27379 5.99333 7.80646 
127 1 106.42 5.72859 4.1572 6.00986 
226 1 106.42 5.90477 6.13868 7.80653 
147 1 106.42 5.44802 7.84406 5.87092 
132 1 106.42 7.84709 6.11664 5.68447 
229 1 106.42 7.6208 4.40876 7.83677 
130 1 106.42 10.0542 5.60772 4.00602 
136 1 106.42 12.0724 5.87235 6.06472 
140 1 106.42 15.3602 5.95401 5.99006 
141 1 106.42 19.3728 7.66842 4.16655 
157 1 106.42 15.7461 7.73411 3.9309 
221 1 106.42 0.0898051 3.79239 7.88039 
161 1 106.42 0.219707 11.4297 4.12624 
163 1 106.42 1.83771 11.6275 6.39707 
146 1 106.42 5.77085 9.94185 4.07437 
148 1 106.42 3.90953 9.87997 6.12696 
167 1 106.42 5.94929 11.6331 5.98718 
169 1 106.42 7.93839 11.7629 4.03144 
152 1 106.42 8.05587 9.93109 5.85424 
151 1 106.42 9.82952 8.07135 5.60647 
156 1 106.42 11.7591 10.2374 5.87246 
249 1 106.42 7.69466 8.00144 7.77091 
250 1 106.42 9.77416 9.72129 7.81566 
153 1 106.42 11.9564 7.90822 4.28429 
155 1 106.42 13.7627 8.03308 6.15555 
154 1 106.42 13.8379 9.65068 3.91532 
175 1 106.42 13.7577 11.616 5.79539 
253 1 106.42 11.8195 7.88351 7.98504 
159 1 106.42 17.7219 7.87739 5.97466 
144 1 106.42 19.5374 9.67928 6.08122 
160 1 106.42 15.8356 9.85644 5.67958 
257 1 106.42 15.877 7.90818 7.73232 
277 1 106.42 15.7659 11.6968 7.90266 
181 1 106.42 0.161156 15.4472 4.01179 
262 1 106.42 1.73371 13.8181 7.73162 
168 1 106.42 3.78566 13.699 5.66638 
183 1 106.42 2.20678 15.7183 6.10315 
166 1 106.42 6.10623 13.5418 4.12372 
269 1 106.42 7.68515 11.7583 7.77392 
171 1 106.42 9.6632 11.9038 5.88841 
172 1 106.42 8.06701 13.8712 5.97963 
191 1 106.42 9.95794 15.7821 5.95079 
270 1 106.42 9.79716 13.6437 7.73664 
193 1 106.42 11.7683 15.735 4.16714 
174 1 106.42 14.08 13.6516 4.07053 
176 1 106.42 11.9254 13.3903 5.84163 
180 1 106.42 15.5192 13.7971 6.11593 
178 1 106.42 17.5956 13.6132 4.15025 
177 1 106.42 15.8437 11.6847 4.1484 
179 1 106.42 17.8222 11.7972 5.92493 
164 1 106.42 19.5493 13.7657 5.96522 
199 1 106.42 17.5561 15.6674 5.69916 
103 1 106.42 2.08941 0.0444367 5.90918 
184 1 106.42 0.388702 17.6583 5.96311 
285 1 106.42 4.16941 15.7111 7.8071 
188 1 106.42 4.1391 17.8068 5.87069 
107 1 106.42 5.94554 0.0300474 5.73048 
187 1 106.42 6.02157 15.5543 5.81061 
286 1 106.42 6.278 17.9812 7.66862 
190 1 106.42 9.96214 17.7961 3.84514 
289 1 106.42 7.93526 15.7453 7.76509 
192 1 106.42 7.84788 17.5548 5.80633 
290 1 106.42 9.52442 17.791 7.91178 
195 1 106.42 13.7036 15.8372 5.88126 
293 1 106.42 11.7028 15.6937 7.90486 
196 1 106.42 11.6935 17.8989 5.98518 
294 1 106.42 13.9924 17.6625 7.78011 
119 1 106.42 17.8249 19.3453 5.81528 
198 1 106.42 17.9478 17.4583 4.04921 
200 1 106.42 15.7576 17.5729 5.6772 
298 1 106.42 17.6584 17.7239 7.89634 
225 1 106.42 3.75746 3.76407 7.84369 
208 1 106.42 3.95195 2.03187 9.68708 
301 1 106.42 0.238325 0.180091 11.7216 
302 1 106.42 1.96716 2.07761 11.5745 
206 1 106.42 5.97428 2.17779 8.05502 
325 1 106.42 4.01233 3.84458 11.7742 
205 1 106.42 4.09333 0.288223 7.73237 
207 1 106.42 5.80913 0.190244 9.7639 
305 1 106.42 4.1049 19.5368 11.5547 
210 1 106.42 9.83929 1.81756 7.91433 
212 1 106.42 7.86026 2.0735 10.0984 
211 1 106.42 9.63124 -0.0151783 9.97624 
329 1 106.42 7.92361 3.9497 11.9863 
216 1 106.42 11.7228 1.87132 9.82858 
231 1 106.42 9.78564 3.72922 9.86399 
333 1 106.42 11.589 3.61599 11.7954 
214 1 106.42 13.6486 2.13858 8.14587 
233 1 106.42 11.5977 3.99222 8.00367 
235 1 106.42 13.754 3.96709 10.0505 
314 1 106.42 13.7628 1.87187 11.7654 
337 1 106.42 15.5608 3.86077 11.8111 
218 1 106.42 17.3867 1.99217 7.67951 
220 1 106.42 15.7524 2.01579 9.7814 
204 1 106.42 19.6552 2.1704 9.57524 
219 1 106.42 17.4193 0.0593592 9.64109 
223 1 106.42 1.96334 4.12745 9.53138 
241 1 106.42 0.0350237 7.72614 7.98923 
322 1 106.42 2.1043 5.68463 11.5434 
245 1 106.42 4.03577 7.79248 8.16117 
227 1 106.42 5.85376 4.07326 9.88382 
228 1 106.42 3.92398 5.79064 9.98303 
232 1 106.42 7.76168 6.22571 9.73651 
230 1 106.42 9.95853 6.14129 8.00208 
236 1 106.42 11.815 5.90369 9.87727 
330 1 106.42 9.91744 5.80737 11.653 
237 1 106.42 15.6902 4.25189 7.92285 
234 1 106.42 13.6779 6.00613 8.10069 
240 1 106.42 15.6569 6.07729 9.72001 
224 1 106.42 0.0931582 5.80204 9.81584 
239 1 106.42 17.7735 3.84913 10.0617 
238 1 106.42 17.8446 5.70447 7.85643 
242 1 106.42 1.79999 9.69674 8.18864 
243 1 106.42 2.03102 7.86181 9.90334 
244 1 106.42 -0.0133131 9.67885 9.97816 
248 1 106.42 3.67486 10.0234 9.75517 
341 1 106.42 0.0117249 7.89955 11.7886 
247 1 106.42 6.02933 7.98593 9.81978 
246 1 106.42 5.70834 9.71123 7.83458 
252 1 106.42 7.62336 10.1331 9.85613 
267 1 106.42 5.61485 11.6069 9.82463 
251 1 106.42 9.8603 8.22492 9.77739 
273 1 106.42 11.977 11.8616 7.92992 
256 1 106.42 11.8285 10.0432 9.78121 
271 1 106.42 9.71183 11.7046 9.68427 
255 1 106.42 13.6455 7.9252 9.66026 
353 1 106.42 11.8 7.76592 11.668 
254 1 106.42 13.8578 9.99549 7.81986 
275 1 106.42 13.6968 11.8312 10.0918 
258 1 106.42 17.7466 9.80689 7.97712 
261 1 106.42 19.5461 11.841 7.9692 
259 1 106.42 17.6696 7.96371 9.83859 
260 1 106.42 15.6058 9.7134 9.84756 
263 1 106.42 1.92134 11.8644 9.77474 
264 1 106.42 19.5808 13.8632 9.76224 
268 1 106.42 3.91365 14.0183 9.64655 
362 1 106.42 1.88231 13.7612 11.6465 
266 1 106.42 6.0041 13.8356 8.09775 
265 1 106.42 4.0344 12.0549 7.86938 
366 1 106.42 5.76271 13.9306 11.4407 
272 1 106.42 8.04271 13.7393 9.82935 
370 1 106.42 9.74233 13.6897 11.8212 
276 1 106.42 11.4717 13.5894 9.98615 
274 1 106.42 13.6107 13.9049 7.89469 
280 1 106.42 15.6821 13.523 9.60398 
374 1 106.42 13.9261 13.9454 11.3737 
361 1 106.42 19.4882 11.7429 11.5265 
278 1 106.42 17.6824 13.7539 7.88046 
279 1 106.42 17.4425 11.6077 10.0266 
378 1 106.42 17.4527 13.7386 11.5166 
297 1 106.42 15.8871 15.7071 7.77385 
397 1 106.42 15.7114 15.6172 11.7367 
281 1 106.42 0.090844 16.0116 8.00446 
282 1 106.42 2.35916 17.6347 7.86784 
203 1 106.42 2.13759 19.5226 9.73346 
283 1 106.42 2.09249 16.2319 9.88335 
382 1 106.42 2.17776 17.9117 11.7691 
381 1 106.42 0.382779 16.0489 11.6979 
288 1 106.42 4.36008 17.6587 9.67715 
287 1 106.42 6.25974 15.7936 9.79394 
385 1 106.42 3.94957 15.6675 11.5031 
291 1 106.42 9.86813 15.6584 9.40149 
292 1 106.42 7.94613 17.7648 9.91593 
296 1 106.42 11.8298 17.9145 9.69898 
393 1 106.42 11.6716 15.5587 11.3282 
215 1 106.42 14.0109 19.4256 9.69956 
213 1 106.42 11.8869 19.5646 7.65499 
295 1 106.42 13.9242 15.9161 9.56386 
394 1 106.42 13.9748 17.6136 11.7096 
284 1 106.42 19.3474 17.9578 9.83575 
300 1 106.42 15.6289 17.4672 9.75757 
299 1 106.42 17.5883 15.658 9.93806 
317 1 106.42 15.9059 19.4834 11.8047 
398 1 106.42 17.7498 17.7961 11.622 
321 1 106.42 0.201126 3.90663 11.92 
402 1 106.42 1.94445 1.66719 15.861 
303 1 106.42 2.09899 -0.0192078 13.6371 
308 1 106.42 3.55427 1.83024 13.3172 
323 1 106.42 1.96017 3.55247 13.9808 
306 1 106.42 6.08652 2.04724 11.8928 
327 1 106.42 5.9707 3.78796 13.7461 
312 1 106.42 7.77273 1.70663 13.813 
307 1 106.42 5.61071 0.311364 13.7672 
406 1 106.42 5.92808 1.92189 15.6987 
310 1 106.42 9.86217 1.87051 12.1036 
429 1 106.42 7.96978 3.91986 15.5142 
316 1 106.42 11.9583 1.95287 13.928 
313 1 106.42 11.8506 0.0222547 11.8792 
315 1 106.42 14.0286 0.125085 13.7341 
318 1 106.42 17.8403 1.85416 11.9062 
320 1 106.42 15.9392 1.98482 13.7143 
304 1 106.42 19.5291 1.61353 13.8561 
418 1 106.42 17.6914 1.94043 15.7785 
328 1 106.42 3.81594 5.65735 13.7022 
345 1 106.42 3.80756 7.64516 12.0207 
422 1 106.42 1.8815 5.83787 15.5031 
326 1 106.42 6.13554 5.7831 11.7872 
332 1 106.42 7.6679 5.86682 13.9379 
449 1 106.42 7.56057 7.8188 15.9281 
347 1 106.42 5.77449 7.73058 13.6588 
331 1 106.42 9.84936 4.02955 13.8423 
349 1 106.42 7.95321 7.92284 11.879 
351 1 106.42 9.55321 7.76398 13.8116 
335 1 106.42 13.75 4.08417 13.7891 
334 1 106.42 13.709 5.90816 11.8294 
336 1 106.42 11.8209 5.81232 13.6509 
340 1 106.42 15.6514 5.61829 13.6266 
357 1 106.42 15.7616 7.53707 12.0725 
339 1 106.42 17.7672 3.75734 13.7529 
338 1 106.42 17.7431 5.89654 11.6697 
324 1 106.42 19.7061 6.0002 13.5176 
421 1 106.42 19.5385 4.04769 15.5584 
438 1 106.42 17.5914 5.95064 15.326 
457 1 106.42 15.6687 7.6516 15.5359 
342 1 106.42 1.90406 10.0742 11.7358 
343 1 106.42 1.90365 8.05638 13.5828 
348 1 106.42 3.96196 9.82244 13.8157 
445 1 106.42 3.82077 7.97629 15.638 
442 1 106.42 1.94329 10.0768 15.6093 
346 1 106.42 5.61775 9.50849 11.7798 
365 1 106.42 4.09273 11.7639 11.7975 
352 1 106.42 7.59932 9.67505 13.6949 
446 1 106.42 5.92559 9.7495 15.4996 
367 1 106.42 6.03195 11.6738 13.8057 
373 1 106.42 11.6773 11.8428 11.8675 
350 1 106.42 9.7931 9.83255 11.7593 
450 1 106.42 9.60376 10.0648 15.6427 
356 1 106.42 11.6462 10.0464 13.6943 
453 1 106.42 11.5937 8.16885 15.6409 
354 1 106.42 13.8129 9.67405 11.9612 
377 1 106.42 15.4758 11.6181 11.8963 
355 1 106.42 13.7894 7.981 13.958 
360 1 106.42 15.5463 9.85484 14.0465 
375 1 106.42 13.5404 11.916 13.7945 
358 1 106.42 17.4243 9.80174 11.8756 
359 1 106.42 17.8768 8.04726 13.7024 
344 1 106.42 19.4495 10.0672 13.6714 
441 1 106.42 19.6115 7.8542 15.5062 
465 1 106.42 3.83977 11.7656 15.5997 
363 1 106.42 1.76723 11.9682 13.5914 
462 1 106.42 2.04538 13.9104 15.7105 
368 1 106.42 3.90757 13.7473 13.5103 
461 1 106.42 0.196053 11.9521 15.7439 
481 1 106.42 0.190609 15.5734 15.6072 
383 1 106.42 1.74424 15.4909 13.5249 
369 1 106.42 7.47648 11.9238 11.781 
466 1 106.42 5.74654 13.6692 15.6462 
372 1 106.42 7.63868 13.8721 13.7295 
387 1 106.42 5.65628 15.7086 13.678 
489 1 106.42 8.03427 15.4835 15.7163 
371 1 106.42 9.47608 11.852 13.7757 
376 1 106.42 11.6985 13.7642 13.8511 
391 1 106.42 9.79944 15.7114 13.7247 
493 1 106.42 11.8065 15.6152 15.8352 
395 1 106.42 13.6346 15.6075 13.3566 
474 1 106.42 13.7202 13.8403 15.847 
364 1 106.42 19.4754 13.8358 13.3809 
380 1 106.42 15.7468 13.6369 13.7419 
379 1 106.42 17.6652 11.8496 13.826 
478 1 106.42 18.0126 13.9602 15.7941 
399 1 106.42 17.6344 15.7186 13.6873 
497 1 106.42 15.7542 15.568 15.3952 
405 1 106.42 4.10176 19.2164 15.5454 
482 1 106.42 1.95676 17.5914 15.5914 
384 1 106.42 0.119603 17.8422 13.676 
485 1 106.42 3.85423 15.829 15.6515 
388 1 106.42 4.19949 17.6573 13.6195 
309 1 106.42 7.61822 19.5977 11.8671 
386 1 106.42 6.03175 17.5727 11.8885 
486 1 106.42 5.98652 17.3461 15.6451 
389 1 106.42 7.80711 15.5737 12.075 
311 1 106.42 10.1843 19.4384 13.9415 
390 1 106.42 9.8996 17.667 11.9089 
392 1 106.42 7.78822 18.1704 13.9988 
396 1 106.42 11.8661 17.6736 13.651 
400 1 106.42 15.8391 17.4617 13.7141 
319 1 106.42 17.5965 19.4154 13.7878 
498 1 106.42 17.785 17.4101 15.5762 
2 1 106.42 1.93505 1.96528 0.0595728 
408 1 106.42 4.03456 2.11551 17.8634 
425 1 106.42 3.86601 3.78448 15.815 
404 1 106.42 0.164451 2.00883 17.6509 
6 1 106.42 6.12838 2.18501 19.5065 
9 1 106.42 7.93154 0.27545 19.1764 
409 1 106.42 8.02172 0.153456 15.8531 
412 1 106.42 7.88869 2.26026 17.6183 
410 1 106.42 10.1796 1.97258 15.732 
411 1 106.42 10.0166 0.0457621 17.4362 
416 1 106.42 12.0468 1.7282 17.814 
14 1 106.42 13.9659 1.90677 19.6392 
414 1 106.42 13.7454 1.71461 15.6956 
420 1 106.42 15.6713 1.94753 17.5809 
439 1 106.42 17.7065 3.851 17.5357 
437 1 106.42 15.682 3.8144 15.6304 
419 1 106.42 17.7339 0.387926 17.8188 
22 1 106.42 1.90733 5.8833 19.5232 
423 1 106.42 1.84185 3.91579 17.6777 
428 1 106.42 3.73299 5.83032 17.4729 
45 1 106.42 4.14234 7.63936 19.4251 
426 1 106.42 5.75067 5.77374 15.8777 
427 1 106.42 5.84091 3.88706 17.553 
447 1 106.42 5.80669 7.93578 17.6417 
430 1 106.42 9.83031 6.00619 15.6666 
433 1 106.42 11.7272 4.15115 15.9579 
431 1 106.42 10.0303 3.97479 17.6196 
432 1 106.42 7.895 5.57621 17.5617 
34 1 106.42 13.9694 6.01086 19.3499 
435 1 106.42 13.8372 3.89305 17.5697 
436 1 106.42 11.8478 6.20484 17.6881 
434 1 106.42 13.6965 5.91578 15.7332 
37 1 106.42 15.813 3.95139 0.00888454 
440 1 106.42 15.7663 5.8619 17.382 
424 1 106.42 19.5824 5.86517 17.4132 
61 1 106.42 19.5428 11.526 19.6353 
42 1 106.42 2.01687 9.13244 19.5455 
443 1 106.42 1.72489 7.85121 17.2747 
463 1 106.42 1.87066 11.5392 17.8006 
49 1 106.42 7.62275 7.86244 19.5009 
501 2 1.01 3.74176 9.41658 -0.391584 
448 1 106.42 3.79283 10.0027 17.3881 
467 1 106.42 5.83849 11.6499 17.4789 
452 1 106.42 7.87231 9.73024 17.589 
451 1 106.42 9.70631 8.03211 17.56 
471 1 106.42 9.89329 11.6398 17.8603 
54 1 106.42 13.7099 9.96347 19.6591 
454 1 106.42 13.3506 10.0909 15.7156 
455 1 106.42 13.9856 7.97659 17.6419 
456 1 106.42 11.7702 9.75836 18.0299 
460 1 106.42 15.2759 9.99749 17.5647 
475 1 106.42 13.3502 11.9105 17.8763 
41 1 106.42 19.3902 8.0055 19.4928 
58 1 106.42 17.6665 9.77561 19.5234 
458 1 106.42 17.8098 9.92439 15.6728 
444 1 106.42 0.0738793 9.97599 17.3308 
459 1 106.42 17.6312 7.91866 17.4714 
85 1 106.42 3.83742 15.6156 19.5004 
464 1 106.42 0.154237 13.8616 17.7089 
468 1 106.42 3.70946 13.7253 17.6341 
69 1 106.42 7.63649 11.4823 19.5383 
65 1 106.42 4.24304 11.9046 19.6977 
66 1 106.42 5.7297 13.8017 19.3891 
487 1 106.42 5.92119 15.3141 17.4336 
469 1 106.42 7.78497 11.9578 15.9653 
473 1 106.42 11.4285 12.0066 15.7607 
472 1 106.42 7.9758 13.7881 17.9387 
470 1 106.42 9.8589 13.5474 15.4079 
476 1 106.42 11.7086 13.8387 17.7879 
491 1 106.42 9.74566 15.5543 17.9793 
477 1 106.42 15.6923 11.9088 15.7128 
480 1 106.42 15.7314 13.7238 17.5444 
97 1 106.42 15.7474 15.5289 19.6182 
81 1 106.42 19.454 15.7411 0.0328535 
77 1 106.42 15.7349 11.6264 19.6453 
479 1 106.42 17.4833 11.8461 17.6614 
499 1 106.42 17.3049 15.706 17.5289 
483 1 106.42 1.95069 15.7505 17.619 
403 1 106.42 1.95529 19.5478 17.8221 
488 1 106.42 3.97188 17.5771 17.7888 
484 1 106.42 0.0209403 17.3337 17.6224 
407 1 106.42 5.77088 19.3403 17.7117 
90 1 106.42 9.59234 17.9132 19.4899 
490 1 106.42 10.0233 17.6737 15.9268 
492 1 106.42 7.74517 17.4444 17.6746 
496 1 106.42 11.665 17.489 17.8649 
413 1 106.42 12.0084 19.3592 15.8766 
415 1 106.42 14.023 19.4216 18.0144 
495 1 106.42 13.8239 15.783 17.82 
494 1 106.42 13.5659 17.4571 15.8721 
1 1 106.42 19.5022 19.4736 19.4784 
401 1 106.42 19.5061 19.4189 15.788 
417 1 106.42 15.6198 19.3263 15.8739 
500 1 106.42 15.6651 17.7112 17.7085 
