ITEM: TIMESTEP
57000
ITEM: NUMBER OF ATOMS
501
ITEM: BOX BOUNDS pp pp pp
0.0000000000000000e+00 1.9629018200000001e+01
0.0000000000000000e+00 1.9629018200000001e+01
0.0000000000000000e+00 1.9629018200000001e+01
ITEM: ATOMS id type mass x y z 
4 1 106.42 0.147747 1.78138 2.35311 
8 1 106.42 3.81307 2.04569 1.97745 
27 1 106.42 5.84564 3.60361 2.07487 
7 1 106.42 6.13606 -0.108304 1.99527 
105 1 106.42 4.02672 -0.0955106 3.80589 
29 1 106.42 7.8632 3.70602 -0.0699423 
12 1 106.42 7.82297 1.79403 2.31929 
10 1 106.42 9.8407 1.88351 0.102138 
31 1 106.42 9.5851 3.8561 1.99613 
133 1 106.42 11.9723 3.73734 4.12707 
110 1 106.42 9.75133 1.95008 4.26654 
16 1 106.42 11.6602 2.05758 2.14867 
20 1 106.42 15.7745 1.87807 1.91838 
35 1 106.42 13.5015 3.97043 1.98806 
39 1 106.42 17.8996 3.69154 1.88042 
1 1 106.42 19.6328 0.0911355 -0.115265 
137 1 106.42 15.5737 3.69724 3.82336 
18 1 106.42 17.8243 2.25902 -0.0357751 
23 1 106.42 1.89001 3.86024 1.97582 
43 1 106.42 1.94963 7.85892 1.83224 
28 1 106.42 4.08025 5.96378 2.15421 
24 1 106.42 0.136781 5.84968 1.81005 
145 1 106.42 3.83771 7.86778 3.93315 
25 1 106.42 3.80765 3.95448 19.6842 
26 1 106.42 6.26471 5.83722 0.312697 
49 1 106.42 7.81386 8.01981 0.314349 
32 1 106.42 7.78945 5.96582 2.23271 
36 1 106.42 11.6311 5.96494 1.76176 
130 1 106.42 9.83099 5.64885 3.82257 
33 1 106.42 11.5759 3.67765 19.4917 
55 1 106.42 13.8609 7.71058 1.57477 
40 1 106.42 15.6804 5.39185 1.98782 
157 1 106.42 15.6402 7.77372 3.36041 
134 1 106.42 13.7108 5.85627 3.77568 
138 1 106.42 17.6645 5.83445 3.64749 
38 1 106.42 17.5224 5.7817 0.358572 
48 1 106.42 3.94073 9.70323 2.19929 
44 1 106.42 0.386321 9.77676 2.05978 
165 1 106.42 3.89004 11.9678 3.77096 
47 1 106.42 5.99009 7.99349 1.9691 
46 1 106.42 5.80652 10.0436 -0.0409146 
149 1 106.42 8.17516 7.90715 3.91114 
51 1 106.42 9.97741 7.93952 1.91788 
52 1 106.42 7.78914 9.90232 2.01783 
150 1 106.42 9.94145 9.88745 3.72513 
153 1 106.42 12.1364 8.0802 3.59528 
56 1 106.42 11.8379 9.93582 1.82663 
75 1 106.42 14.0282 11.7393 2.0314 
154 1 106.42 13.8537 9.913 4.05545 
59 1 106.42 17.8578 7.91975 2.01619 
60 1 106.42 15.7916 9.94817 1.82484 
79 1 106.42 17.9166 11.5094 2.32586 
158 1 106.42 17.5349 9.78258 4.11834 
57 1 106.42 16.0229 7.78089 0.0401948 
63 1 106.42 1.98863 11.8514 1.97478 
81 1 106.42 -0.0961838 15.9734 -0.0295311 
62 1 106.42 2.04829 13.9089 0.0450388 
67 1 106.42 6.11382 12.1268 2.29114 
68 1 106.42 3.89342 13.8849 2.00498 
66 1 106.42 5.89547 13.8395 0.0424589 
69 1 106.42 7.73145 11.6913 19.2313 
87 1 106.42 6.12141 15.7764 1.99652 
65 1 106.42 4.13438 11.933 0.263105 
72 1 106.42 7.86693 13.8225 1.98497 
71 1 106.42 9.53923 11.7867 1.83159 
91 1 106.42 9.95425 15.7553 1.99895 
70 1 106.42 9.9354 13.4352 0.00356706 
77 1 106.42 15.9138 11.8029 0.212674 
76 1 106.42 12.0125 13.3591 1.94233 
74 1 106.42 13.7167 13.6756 19.5016 
93 1 106.42 11.6894 15.652 19.5687 
64 1 106.42 19.4184 13.7197 2.23169 
80 1 106.42 15.4501 14.2126 1.65068 
78 1 106.42 17.6938 14.085 0.0599219 
61 1 106.42 19.5787 11.8988 0.137328 
83 1 106.42 1.72182 15.8265 1.77883 
3 1 106.42 1.79275 19.6807 2.12152 
182 1 106.42 1.85627 17.7097 3.85528 
5 1 106.42 4.32183 19.4354 0.315211 
82 1 106.42 1.85821 17.6652 -0.106214 
88 1 106.42 3.75279 17.5724 1.78887 
185 1 106.42 3.69918 15.8155 3.85571 
186 1 106.42 5.95285 17.7735 3.87817 
86 1 106.42 6.12811 17.4999 0.0187263 
11 1 106.42 9.95181 19.6944 1.94971 
92 1 106.42 8.19185 17.7218 1.95949 
90 1 106.42 9.91543 17.6771 19.5707 
89 1 106.42 7.9562 15.7038 0.308748 
95 1 106.42 13.5467 15.5075 2.02795 
15 1 106.42 13.5174 19.6672 1.79098 
96 1 106.42 11.6699 17.7631 1.98315 
97 1 106.42 15.6909 15.9262 -0.181002 
100 1 106.42 15.5149 17.5883 1.73415 
117 1 106.42 15.7019 19.4574 3.86628 
19 1 106.42 17.7269 19.6522 1.69196 
99 1 106.42 17.771 15.6968 1.8762 
84 1 106.42 19.501 17.7476 2.03486 
197 1 106.42 15.7854 15.7021 3.82975 
102 1 106.42 1.85792 1.86465 4.10331 
103 1 106.42 1.96982 19.5944 5.98629 
106 1 106.42 5.55884 1.93884 3.89651 
129 1 106.42 7.85001 3.75446 4.1043 
108 1 106.42 3.74511 2.0964 5.89797 
127 1 106.42 5.7629 4.19152 5.85539 
112 1 106.42 7.38473 1.89937 6.44592 
109 1 106.42 7.9017 0.0889094 4.26564 
111 1 106.42 9.95003 -0.213975 5.95346 
131 1 106.42 9.77512 4.00317 5.88536 
210 1 106.42 9.79832 1.84665 7.72493 
114 1 106.42 13.7105 1.74545 3.56821 
116 1 106.42 11.7274 1.91519 5.94921 
120 1 106.42 15.8134 1.92173 6.07168 
115 1 106.42 13.6989 0.00340111 5.98384 
118 1 106.42 17.6115 1.82849 3.92281 
101 1 106.42 19.6642 -0.0364239 4.61769 
104 1 106.42 19.2999 2.03562 6.21427 
139 1 106.42 17.4584 4.05931 5.75866 
119 1 106.42 17.4936 -0.0771446 6.14632 
122 1 106.42 1.8542 5.94784 3.74437 
125 1 106.42 3.9801 4.17375 4.0339 
123 1 106.42 1.8777 3.83717 5.95588 
128 1 106.42 3.71663 5.82676 5.95838 
143 1 106.42 2.01733 8.03317 6.04219 
222 1 106.42 1.88596 5.9073 7.90514 
229 1 106.42 7.80699 4.08246 7.7835 
126 1 106.42 6.16154 5.77123 3.76136 
226 1 106.42 5.81431 6.05265 7.61791 
245 1 106.42 3.9948 7.99918 7.98783 
147 1 106.42 5.86044 7.82406 5.62364 
132 1 106.42 8.01631 5.81007 5.76568 
230 1 106.42 9.61934 6.28241 7.85742 
253 1 106.42 11.7922 8.02345 7.89853 
136 1 106.42 11.7255 5.81193 5.97579 
135 1 106.42 13.8056 3.92602 5.99707 
233 1 106.42 11.8197 4.03918 7.67705 
234 1 106.42 13.7654 6.0202 7.70619 
121 1 106.42 19.6631 3.78706 4.10957 
141 1 106.42 19.6521 8.08073 3.99226 
124 1 106.42 19.751 5.82613 5.73686 
140 1 106.42 15.7152 5.88265 5.43354 
238 1 106.42 17.5414 5.80514 7.89192 
257 1 106.42 15.6406 7.87023 7.63514 
142 1 106.42 1.93582 9.87321 4.17994 
148 1 106.42 4.03729 9.79941 5.90462 
242 1 106.42 2.07452 9.9809 7.82777 
146 1 106.42 5.84106 9.95223 3.82884 
249 1 106.42 7.72484 8.00134 7.80581 
246 1 106.42 5.94269 9.89153 7.69493 
173 1 106.42 11.7906 11.7472 3.83275 
152 1 106.42 7.8948 9.7815 5.58264 
151 1 106.42 10.3004 7.86709 5.51234 
156 1 106.42 11.7055 9.87322 6.2595 
177 1 106.42 15.8473 11.7967 3.89371 
155 1 106.42 13.5447 7.96242 5.82841 
254 1 106.42 13.8626 9.78348 7.65326 
160 1 106.42 15.8525 9.9976 5.96961 
175 1 106.42 13.5068 11.7308 5.93206 
161 1 106.42 0.135896 11.9329 4.00066 
159 1 106.42 17.5819 7.62269 5.74513 
144 1 106.42 19.5357 9.91868 5.86917 
179 1 106.42 17.7646 11.7006 6.01271 
241 1 106.42 -0.0107178 7.82967 7.72674 
162 1 106.42 2.00785 13.7807 3.61029 
163 1 106.42 2.10901 11.7224 5.82584 
168 1 106.42 3.863 13.7125 5.75158 
262 1 106.42 2.03215 13.747 7.65348 
169 1 106.42 7.89364 11.824 4.02042 
166 1 106.42 5.82063 14.0894 4.00118 
167 1 106.42 6.04121 11.8093 5.87111 
172 1 106.42 7.80115 13.9988 5.79793 
269 1 106.42 7.86367 11.6841 7.93803 
189 1 106.42 8.0023 15.6405 3.92857 
170 1 106.42 9.81611 13.6029 3.98984 
171 1 106.42 9.78279 11.7931 6.13882 
191 1 106.42 10.3653 15.5888 6.00987 
270 1 106.42 9.61933 13.562 8.00635 
193 1 106.42 11.803 15.2298 3.85628 
176 1 106.42 11.7867 13.6199 6.08782 
174 1 106.42 14.0657 13.6096 4.02707 
195 1 106.42 13.9993 15.5963 5.73922 
180 1 106.42 15.9315 13.6887 5.99081 
178 1 106.42 17.5074 13.7735 3.94023 
164 1 106.42 19.6554 13.8029 5.7285 
261 1 106.42 19.7251 11.7286 7.72964 
278 1 106.42 17.691 13.8392 7.86225 
183 1 106.42 1.86028 15.5264 5.85369 
188 1 106.42 3.82847 17.4724 5.85774 
184 1 106.42 0.25863 17.6018 6.1715 
205 1 106.42 3.66204 19.6919 7.90397 
107 1 106.42 5.68127 19.4541 6.06134 
187 1 106.42 5.6089 15.4829 5.77747 
190 1 106.42 9.94937 17.3424 4.06384 
192 1 106.42 7.79421 17.5418 5.81219 
209 1 106.42 7.793 19.5068 7.97374 
289 1 106.42 7.8496 15.8506 7.7149 
113 1 106.42 11.8837 19.6118 4.02111 
196 1 106.42 12.1045 17.421 6.20828 
194 1 106.42 13.5437 17.61 3.79015 
213 1 106.42 11.7986 0.213817 7.91367 
181 1 106.42 19.7657 15.8018 3.80652 
199 1 106.42 17.7387 15.8406 5.86455 
198 1 106.42 17.8529 17.8862 4.05217 
200 1 106.42 15.707 17.6154 5.71603 
202 1 106.42 1.86312 1.96283 7.97009 
225 1 106.42 3.91494 4.031 7.79374 
223 1 106.42 2.09545 4.07448 9.83129 
208 1 106.42 3.79931 1.96397 9.81868 
206 1 106.42 5.57961 1.92225 8.0283 
227 1 106.42 5.86421 3.9635 9.65526 
306 1 106.42 5.81267 1.95756 11.6199 
212 1 106.42 7.63479 1.68916 9.71952 
211 1 106.42 9.81764 19.5182 9.95177 
310 1 106.42 9.6433 1.85443 11.5778 
216 1 106.42 11.8385 2.07555 9.60955 
333 1 106.42 11.528 3.89938 11.6158 
214 1 106.42 13.7335 2.05019 7.57822 
215 1 106.42 13.6255 0.16838 9.86887 
220 1 106.42 15.4633 2.10667 10.0454 
218 1 106.42 17.5592 1.95289 8.14822 
204 1 106.42 19.652 2.22552 9.71239 
318 1 106.42 17.5264 2.14162 11.8537 
322 1 106.42 1.88897 6.02778 11.7912 
228 1 106.42 4.12143 5.8921 9.75073 
232 1 106.42 7.79499 6.12777 9.57693 
329 1 106.42 7.83466 3.88228 11.4928 
326 1 106.42 5.92417 6.02682 11.4479 
231 1 106.42 9.81001 3.85208 9.46114 
236 1 106.42 11.794 5.93687 9.47725 
330 1 106.42 9.74528 5.60162 11.3967 
235 1 106.42 13.5105 3.99939 10.0752 
240 1 106.42 15.5091 6.07003 9.65436 
334 1 106.42 13.8965 5.9921 11.7747 
237 1 106.42 15.4723 3.71942 8.03021 
221 1 106.42 19.5508 4.1015 7.72704 
239 1 106.42 17.3728 4.1143 9.92303 
224 1 106.42 0.101157 5.97404 10.0391 
338 1 106.42 17.6828 6.0245 11.6676 
243 1 106.42 2.1187 7.74043 9.66333 
342 1 106.42 1.86818 10.1596 11.9342 
345 1 106.42 3.69727 8.07126 11.7256 
248 1 106.42 3.82837 9.70696 9.73553 
244 1 106.42 0.197775 9.74439 9.77524 
341 1 106.42 0.120835 8.11807 11.6984 
265 1 106.42 4.02172 11.8716 7.65746 
247 1 106.42 5.7953 7.96443 9.81973 
250 1 106.42 9.519 9.83526 7.84247 
273 1 106.42 11.642 11.8912 8.09331 
251 1 106.42 9.87423 8.22018 9.72071 
252 1 106.42 7.5761 9.96769 10.0208 
256 1 106.42 11.936 9.77323 9.83382 
353 1 106.42 12.0251 7.6297 11.4755 
255 1 106.42 13.7759 7.91047 9.67104 
354 1 106.42 13.8847 9.43906 11.8474 
275 1 106.42 13.6172 11.5575 9.90576 
377 1 106.42 15.5985 11.6459 11.9751 
258 1 106.42 17.6904 10.043 7.88181 
260 1 106.42 15.7169 9.66335 9.75395 
259 1 106.42 17.9982 7.88304 9.45827 
358 1 106.42 17.7227 9.75788 11.7883 
281 1 106.42 -0.0107636 15.5004 7.90827 
263 1 106.42 1.89669 11.9447 9.61859 
268 1 106.42 3.83129 13.6791 10.1954 
285 1 106.42 3.95383 15.2235 7.94342 
283 1 106.42 1.87931 15.6218 9.64201 
266 1 106.42 6.04886 13.6379 7.94045 
267 1 106.42 5.8579 11.6382 9.92905 
366 1 106.42 5.88578 13.9218 11.7884 
271 1 106.42 9.57342 11.7173 9.87682 
272 1 106.42 7.79923 14.1488 9.67301 
276 1 106.42 11.438 13.528 9.89186 
277 1 106.42 15.571 11.8559 7.94498 
274 1 106.42 13.6355 13.8259 7.85032 
280 1 106.42 15.6007 13.5239 9.90248 
293 1 106.42 11.666 15.4161 8.22038 
297 1 106.42 15.6181 15.6971 8.10069 
264 1 106.42 19.6004 13.6212 10.1441 
279 1 106.42 17.4938 11.7929 9.82633 
299 1 106.42 17.6098 15.4984 9.78639 
282 1 106.42 2.17913 17.4391 7.8392 
203 1 106.42 1.72739 19.3959 10.0286 
288 1 106.42 3.73395 17.3519 9.87574 
284 1 106.42 -0.025479 17.5304 10.0721 
207 1 106.42 5.73114 19.4154 9.93739 
287 1 106.42 5.97036 15.7647 9.83816 
286 1 106.42 5.57807 17.6514 7.9324 
309 1 106.42 7.6773 19.4377 11.6149 
291 1 106.42 9.77857 15.9226 9.81132 
290 1 106.42 9.91468 17.6189 7.53742 
292 1 106.42 7.73979 17.4332 9.82469 
217 1 106.42 15.5843 19.4352 7.79422 
295 1 106.42 13.463 15.9162 9.96803 
294 1 106.42 13.8741 17.4213 7.92346 
296 1 106.42 11.7278 17.8487 9.71032 
201 1 106.42 19.632 19.516 8.09118 
298 1 106.42 17.6539 17.284 7.88056 
219 1 106.42 17.4837 19.4527 9.6644 
317 1 106.42 15.8032 19.5491 11.7489 
300 1 106.42 15.6165 17.4808 9.95014 
398 1 106.42 17.6037 17.6091 11.6873 
302 1 106.42 1.89207 1.95697 11.8405 
304 1 106.42 19.6079 2.02205 13.8215 
402 1 106.42 1.98713 2.17772 15.6667 
308 1 106.42 4.05111 1.83546 13.6077 
406 1 106.42 5.9377 1.74537 15.8291 
307 1 106.42 5.95359 0.270854 13.6192 
313 1 106.42 11.9054 19.6729 11.9117 
312 1 106.42 7.80058 1.97587 13.423 
316 1 106.42 11.6506 2.17959 13.7971 
311 1 106.42 9.83648 0.0746651 13.8193 
413 1 106.42 11.8902 0.208343 15.5489 
410 1 106.42 9.74542 2.20372 15.7301 
314 1 106.42 13.6358 2.02929 12.0898 
414 1 106.42 13.9604 2.11447 15.913 
315 1 106.42 13.7897 0.133811 13.769 
320 1 106.42 15.7348 1.92149 13.6607 
417 1 106.42 15.8591 19.5646 15.4255 
437 1 106.42 15.5533 3.85698 15.701 
339 1 106.42 18.025 3.9399 13.6212 
319 1 106.42 17.7292 0.0617241 13.6414 
321 1 106.42 0.140027 3.82093 11.7032 
323 1 106.42 1.90569 3.98669 13.6854 
343 1 106.42 2.01644 7.96125 13.8292 
421 1 106.42 0.111856 4.15136 15.5103 
325 1 106.42 3.81194 4.06312 11.9665 
328 1 106.42 4.04148 5.88629 13.8878 
327 1 106.42 5.83001 3.85657 13.6506 
332 1 106.42 7.73641 5.92688 13.391 
449 1 106.42 7.75454 7.65782 15.3857 
331 1 106.42 9.56882 3.91497 13.4753 
433 1 106.42 11.5175 4.2872 15.533 
336 1 106.42 11.7159 5.96641 13.3424 
351 1 106.42 9.89826 7.88855 13.5182 
430 1 106.42 9.59831 5.83056 15.6553 
337 1 106.42 15.6344 4.06035 11.9152 
335 1 106.42 13.5247 3.89635 13.9581 
434 1 106.42 13.63 5.99459 15.929 
355 1 106.42 13.6514 7.73027 13.9484 
324 1 106.42 0.0827339 6.174 13.661 
340 1 106.42 15.5492 5.76395 13.7956 
359 1 106.42 17.4415 7.77738 13.6747 
441 1 106.42 19.6175 7.88179 15.7395 
357 1 106.42 15.7985 7.91528 11.5784 
457 1 106.42 15.8187 7.80128 15.646 
438 1 106.42 17.5035 5.66576 15.4418 
348 1 106.42 3.99675 9.65743 13.6866 
363 1 106.42 1.93275 11.6141 13.9334 
349 1 106.42 8.10192 7.86355 11.482 
346 1 106.42 5.8472 9.91719 11.9031 
365 1 106.42 3.8294 11.8411 11.9281 
445 1 106.42 3.87432 7.8989 15.7214 
347 1 106.42 5.8115 7.75091 13.5324 
367 1 106.42 6.01584 11.9529 13.6323 
446 1 106.42 5.97599 9.7301 15.8037 
350 1 106.42 9.68904 10.2632 11.8091 
352 1 106.42 7.74782 9.76033 13.4286 
453 1 106.42 11.8783 8.03241 15.6161 
450 1 106.42 9.88498 9.90579 15.6502 
373 1 106.42 11.9446 11.7689 12.0013 
356 1 106.42 11.8459 9.39295 13.4588 
375 1 106.42 13.9423 11.6249 13.8082 
344 1 106.42 19.5587 9.834 13.8734 
360 1 106.42 15.892 9.70338 13.8754 
477 1 106.42 15.7788 11.9514 15.8377 
379 1 106.42 17.7012 11.6604 13.7903 
361 1 106.42 19.4932 11.6243 11.722 
461 1 106.42 19.4554 11.9956 15.6251 
362 1 106.42 1.89886 13.5397 11.9343 
364 1 106.42 19.4795 13.6608 13.6747 
383 1 106.42 2.22693 15.5904 13.7894 
368 1 106.42 3.81896 13.5781 13.8392 
372 1 106.42 8.0319 13.6648 13.9026 
385 1 106.42 3.86544 15.4573 11.9667 
466 1 106.42 5.84388 14.0255 15.8949 
369 1 106.42 7.80714 12.2123 11.6792 
389 1 106.42 8.0482 15.7906 11.7662 
371 1 106.42 9.78509 11.6065 13.8348 
370 1 106.42 9.98662 13.6885 12.2018 
391 1 106.42 10.0863 15.883 13.8135 
493 1 106.42 11.937 15.7687 15.8911 
470 1 106.42 10.1054 13.5746 15.6234 
376 1 106.42 12.0402 13.785 13.7673 
374 1 106.42 13.7439 13.4618 11.6788 
395 1 106.42 13.7995 15.5508 14.0529 
397 1 106.42 15.4376 15.6084 11.7399 
380 1 106.42 15.7147 13.7811 13.8568 
381 1 106.42 19.7044 15.7277 11.7851 
378 1 106.42 17.4452 13.4589 11.9451 
399 1 106.42 17.8544 15.7636 13.5026 
305 1 106.42 3.89909 19.5073 12.0603 
301 1 106.42 -0.0698798 19.6343 11.9542 
382 1 106.42 2.12788 17.6078 12.0088 
303 1 106.42 2.0859 19.6482 13.851 
386 1 106.42 5.83489 17.7188 11.8502 
405 1 106.42 3.94562 19.4234 15.7722 
388 1 106.42 4.17525 17.5063 13.9277 
387 1 106.42 6.15222 15.7252 13.6226 
390 1 106.42 9.76092 17.7819 11.8275 
409 1 106.42 7.85445 0.243756 15.8128 
393 1 106.42 11.8378 15.7462 11.6858 
392 1 106.42 7.9853 17.792 13.8672 
490 1 106.42 9.65311 17.7095 15.9145 
394 1 106.42 14.0836 17.8078 11.8863 
396 1 106.42 11.9455 17.4184 13.6432 
400 1 106.42 16.1214 17.6248 13.7113 
384 1 106.42 19.5664 17.6483 13.8405 
401 1 106.42 -0.230657 -0.114694 15.7522 
2 1 106.42 2.16835 1.90698 19.7103 
423 1 106.42 2.09075 4.0216 17.5891 
408 1 106.42 3.95734 1.96622 17.8822 
21 1 106.42 0.239061 3.71372 0.189323 
404 1 106.42 0.00647131 2.30219 17.548 
403 1 106.42 2.09356 0.197238 17.6358 
6 1 106.42 5.73039 1.98049 19.6796 
425 1 106.42 4.13489 3.73772 15.5796 
407 1 106.42 5.84908 -0.151356 17.4239 
9 1 106.42 8.07138 0.171745 19.309 
13 1 106.42 11.5559 0.0405816 19.4924 
412 1 106.42 7.75182 2.33959 17.4135 
431 1 106.42 9.54931 4.14624 17.7707 
416 1 106.42 11.5455 2.02707 17.5578 
14 1 106.42 13.4848 1.81655 19.4627 
17 1 106.42 15.7317 0.0241389 19.5833 
37 1 106.42 15.7169 3.60788 -0.00850698 
418 1 106.42 17.9187 2.0872 15.5808 
420 1 106.42 15.7889 1.95025 17.726 
439 1 106.42 17.4927 3.96124 17.7104 
419 1 106.42 17.7471 0.249232 17.7989 
45 1 106.42 3.8083 7.94103 19.564 
22 1 106.42 1.90694 5.9242 19.3043 
422 1 106.42 2.13438 5.96887 15.8111 
443 1 106.42 1.76994 7.95041 17.4569 
41 1 106.42 19.5475 7.59593 19.2459 
429 1 106.42 7.82783 3.98274 15.4942 
426 1 106.42 5.72271 5.83712 15.6996 
427 1 106.42 5.8653 3.83404 17.8784 
428 1 106.42 4.29436 5.93998 17.8022 
432 1 106.42 7.70967 6.15292 17.4766 
30 1 106.42 9.32303 5.9167 19.8258 
436 1 106.42 11.397 6.26484 17.4657 
34 1 106.42 13.7172 5.7245 19.4903 
435 1 106.42 13.35 4.06804 17.542 
455 1 106.42 13.6166 7.75298 17.791 
440 1 106.42 15.7202 5.86544 17.7571 
424 1 106.42 19.4781 5.68192 17.5267 
459 1 106.42 17.6924 7.59027 17.6268 
442 1 106.42 1.87688 9.74497 15.6726 
42 1 106.42 1.83906 9.76515 19.5784 
448 1 106.42 3.83069 9.90119 17.6812 
444 1 106.42 -0.0257456 9.93724 17.6927 
447 1 106.42 6.02764 7.78215 17.9212 
501 2 1.01 5.93225 8.07645 0.0941591 
465 1 106.42 4.07713 11.5409 15.5408 
473 1 106.42 11.936 11.592 15.3913 
451 1 106.42 9.47589 8.06478 17.2885 
53 1 106.42 11.6157 7.77693 19.4279 
452 1 106.42 7.63397 9.73183 17.666 
50 1 106.42 9.64046 9.88888 19.6922 
454 1 106.42 13.8823 9.71215 15.7643 
54 1 106.42 13.6353 9.71046 19.658 
456 1 106.42 11.8595 9.97838 17.5595 
475 1 106.42 14.0883 11.8883 17.7039 
460 1 106.42 15.7976 9.72208 17.6361 
73 1 106.42 11.8885 11.8573 19.5273 
58 1 106.42 17.7322 9.62065 0.034533 
458 1 106.42 17.7826 9.62373 15.7134 
479 1 106.42 17.6973 11.5667 17.7458 
463 1 106.42 1.91983 11.8104 18.0623 
462 1 106.42 1.80582 13.6574 15.6992 
483 1 106.42 2.19342 15.8044 17.6905 
468 1 106.42 3.87849 13.3989 17.5651 
467 1 106.42 5.92488 11.7678 17.3953 
472 1 106.42 7.89162 13.9602 18.0223 
487 1 106.42 5.74016 16.0883 17.7018 
469 1 106.42 8.07284 11.9768 15.8807 
471 1 106.42 9.95167 11.87 17.7053 
491 1 106.42 9.95121 15.5909 17.7085 
474 1 106.42 13.7345 13.3125 15.8991 
476 1 106.42 11.9224 13.7051 17.6108 
478 1 106.42 17.7933 13.7996 16.1221 
480 1 106.42 15.8684 13.9348 17.6105 
464 1 106.42 0.0517554 13.7872 17.9836 
481 1 106.42 19.8531 15.4874 15.6677 
499 1 106.42 17.8387 15.807 17.5687 
482 1 106.42 1.68038 17.6349 15.4815 
484 1 106.42 0.205378 17.6671 17.7618 
488 1 106.42 3.6929 17.919 17.9145 
85 1 106.42 3.77354 15.904 19.7174 
486 1 106.42 5.91463 17.5223 15.5767 
485 1 106.42 3.87615 15.5971 15.6052 
489 1 106.42 8.29459 15.4679 15.723 
411 1 106.42 10.0279 0.161957 17.4018 
492 1 106.42 7.86334 17.4271 17.662 
496 1 106.42 11.7525 17.5965 17.6927 
94 1 106.42 13.5328 17.5933 19.5607 
494 1 106.42 13.581 17.832 15.5466 
415 1 106.42 13.6716 19.5081 17.4658 
495 1 106.42 13.8518 15.631 17.5668 
500 1 106.42 15.7119 17.7414 17.5919 
98 1 106.42 17.6195 17.7536 19.4084 
498 1 106.42 17.9214 17.5583 15.8635 
497 1 106.42 15.7084 15.9971 15.6162 
