ITEM: TIMESTEP
59500
ITEM: NUMBER OF ATOMS
501
ITEM: BOX BOUNDS pp pp pp
0.0000000000000000e+00 1.9629018200000001e+01
0.0000000000000000e+00 1.9629018200000001e+01
0.0000000000000000e+00 1.9629018200000001e+01
ITEM: ATOMS id type mass x y z 
125 1 106.42 3.83368 3.58539 3.89664 
4 1 106.42 -0.000394791 2.19331 1.82269 
3 1 106.42 1.88337 0.225161 1.94705 
5 1 106.42 3.70281 0.12865 0.0530045 
8 1 106.42 4.07184 2.09781 2.03163 
12 1 106.42 7.82976 2.01224 2.04288 
25 1 106.42 4.12802 3.72808 0.164891 
106 1 106.42 6.24839 1.98281 3.91464 
9 1 106.42 7.70731 0.0601004 0.298041 
31 1 106.42 9.91333 3.80031 1.86491 
11 1 106.42 9.78368 0.0147462 1.83075 
133 1 106.42 11.6999 3.55425 3.92415 
110 1 106.42 9.9246 1.7947 3.70896 
10 1 106.42 9.72511 1.87838 0.0568505 
16 1 106.42 11.9545 1.65339 1.59711 
35 1 106.42 13.5742 3.76911 2.19737 
20 1 106.42 15.6061 1.88013 2.18499 
33 1 106.42 11.8117 3.63836 0.103224 
18 1 106.42 17.3377 2.15598 0.0608756 
118 1 106.42 17.5528 2.08298 3.90027 
101 1 106.42 19.6126 0.039337 3.62039 
1 1 106.42 19.5826 0.0829962 0.185445 
23 1 106.42 2.00959 3.94296 1.93083 
122 1 106.42 2.05248 5.61224 3.9033 
22 1 106.42 2.08955 5.81238 0.21117 
24 1 106.42 0.141059 5.61947 2.13162 
41 1 106.42 0.0825656 7.82412 0.346935 
27 1 106.42 5.90238 4.04475 2.03318 
28 1 106.42 4.0141 5.69994 2.23534 
47 1 106.42 6.11219 7.53646 1.98247 
29 1 106.42 8.01998 3.93413 0.203071 
32 1 106.42 8.13983 5.96408 2.12223 
30 1 106.42 10.0885 5.74025 0.190902 
36 1 106.42 11.6756 5.85141 2.2323 
51 1 106.42 9.81501 7.79341 1.99926 
49 1 106.42 7.95798 7.4783 0.113503 
55 1 106.42 13.8804 7.78158 2.67117 
34 1 106.42 13.9133 5.90282 0.375976 
40 1 106.42 15.6624 6.01188 2.02239 
37 1 106.42 16.0771 4.2586 0.00929013 
39 1 106.42 17.6739 4.02705 1.89918 
137 1 106.42 15.9738 4.07108 3.91114 
43 1 106.42 2.21555 8.1331 1.91253 
42 1 106.42 2.08738 9.78192 0.037941 
142 1 106.42 2.08139 9.90449 3.86314 
44 1 106.42 0.134567 9.89488 1.96896 
141 1 106.42 0.0629387 7.93673 3.77233 
48 1 106.42 4.11942 9.88257 1.90552 
46 1 106.42 6.54826 9.57991 0.0162052 
67 1 106.42 5.83047 11.7624 1.88728 
145 1 106.42 4.06915 7.94402 3.79531 
169 1 106.42 7.81598 11.7302 3.68183 
52 1 106.42 8.09595 9.73778 2.02866 
71 1 106.42 10.1807 11.7385 2.20826 
69 1 106.42 8.23694 11.6396 0.310458 
50 1 106.42 9.77384 9.72417 0.148129 
53 1 106.42 11.9416 8.03966 0.518919 
56 1 106.42 11.9592 9.68496 2.27216 
54 1 106.42 13.7496 9.81922 0.233894 
154 1 106.42 14.0226 9.85866 3.84518 
60 1 106.42 16.0353 9.96638 1.99462 
59 1 106.42 17.5756 7.89245 2.10772 
58 1 106.42 17.8106 9.82362 0.054693 
63 1 106.42 1.85456 11.8663 1.90032 
68 1 106.42 3.61161 13.722 1.63165 
64 1 106.42 0.0590556 13.8363 1.89211 
181 1 106.42 0.119621 15.5167 3.86067 
166 1 106.42 6.141 13.6918 3.73801 
185 1 106.42 3.96237 15.5027 3.82324 
87 1 106.42 5.72931 15.2539 1.72253 
189 1 106.42 7.83351 15.5851 3.74496 
165 1 106.42 4.05137 11.9623 3.82396 
72 1 106.42 8.03934 13.81 1.79765 
170 1 106.42 9.96393 13.9094 3.92198 
76 1 106.42 11.8521 14.2065 1.79266 
75 1 106.42 13.6921 11.8966 1.93198 
174 1 106.42 13.6385 13.96 3.64239 
197 1 106.42 15.634 15.6666 3.90566 
173 1 106.42 12.0255 11.9622 3.90306 
74 1 106.42 13.8289 13.9828 0.0766318 
79 1 106.42 17.6112 11.942 1.7434 
80 1 106.42 15.712 13.7957 1.98252 
177 1 106.42 15.7366 11.8035 3.83846 
83 1 106.42 2.07074 15.8043 2.07275 
88 1 106.42 3.76374 17.8189 1.9405 
84 1 106.42 0.0260767 17.5872 2.02678 
85 1 106.42 3.85852 15.929 0.0811052 
7 1 106.42 5.63651 19.5563 1.97793 
92 1 106.42 7.52325 17.3829 1.7633 
109 1 106.42 7.78704 19.2876 3.86632 
91 1 106.42 9.781 15.9426 1.81311 
96 1 106.42 11.7393 17.718 1.89673 
190 1 106.42 9.62291 17.7127 3.76205 
89 1 106.42 7.95432 15.7976 0.057081 
15 1 106.42 13.8384 19.5585 1.9741 
193 1 106.42 11.8088 15.7794 3.88334 
95 1 106.42 13.7906 15.8207 1.74144 
100 1 106.42 15.539 17.7095 1.85692 
19 1 106.42 17.6888 19.6241 2.13323 
99 1 106.42 17.8474 15.8173 1.8627 
102 1 106.42 1.82635 1.87286 4.10827 
108 1 106.42 3.75007 1.98937 5.98798 
123 1 106.42 1.93713 3.76952 5.84663 
104 1 106.42 0.046287 1.97058 5.73572 
202 1 106.42 2.01537 2.04769 7.76567 
221 1 106.42 0.0340927 3.84521 7.66524 
127 1 106.42 5.70939 3.81101 5.79596 
206 1 106.42 5.90746 2.03416 7.75356 
209 1 106.42 7.61328 0.201806 7.84963 
112 1 106.42 7.89599 1.92426 5.71876 
210 1 106.42 9.80599 2.178 7.86014 
116 1 106.42 11.6304 1.4303 6.01585 
131 1 106.42 9.96646 3.74893 5.82469 
113 1 106.42 11.8913 0.0674573 3.9765 
114 1 106.42 13.6936 2.08224 3.99022 
135 1 106.42 13.5964 3.71521 6.18504 
120 1 106.42 15.4177 1.80119 5.90846 
121 1 106.42 19.6217 3.90837 3.99718 
237 1 106.42 15.8531 3.86935 7.80167 
139 1 106.42 17.7609 3.64475 5.86862 
218 1 106.42 17.7723 1.85602 7.73429 
124 1 106.42 0.128145 5.86067 5.89088 
222 1 106.42 1.90998 6.11282 7.62771 
128 1 106.42 3.93449 5.7007 5.89998 
126 1 106.42 5.84173 5.87799 4.09434 
226 1 106.42 5.90477 5.83876 7.76278 
132 1 106.42 7.73975 5.72815 6.02223 
129 1 106.42 7.90328 4.18732 4.21908 
130 1 106.42 9.52221 5.97638 4.32344 
253 1 106.42 11.7306 7.56671 7.75422 
134 1 106.42 13.9722 5.69785 4.10634 
136 1 106.42 11.9219 5.71544 5.7675 
155 1 106.42 13.7745 7.83084 5.96487 
138 1 106.42 17.8786 6.01483 4.06862 
140 1 106.42 16.0019 5.70657 5.87303 
157 1 106.42 15.808 7.76443 4.25979 
143 1 106.42 2.26605 7.97545 5.8528 
144 1 106.42 0.343545 9.88241 5.95423 
161 1 106.42 0.085793 11.6603 3.96519 
148 1 106.42 3.8657 10.1141 5.94095 
146 1 106.42 6.08126 10.0605 4.02452 
149 1 106.42 7.57031 7.91473 4.22678 
147 1 106.42 5.7935 8.03824 6.07165 
153 1 106.42 11.5298 7.89604 4.30663 
249 1 106.42 7.86788 7.85913 7.84798 
152 1 106.42 7.9896 10.126 6.08226 
150 1 106.42 9.78579 9.79983 3.93447 
151 1 106.42 9.83852 7.94766 6.11421 
269 1 106.42 7.95632 11.7445 7.80999 
250 1 106.42 10.2204 9.78733 7.72546 
156 1 106.42 12.0454 9.92524 5.73881 
175 1 106.42 13.8949 11.6942 5.85757 
273 1 106.42 12.0226 11.7224 7.72749 
159 1 106.42 17.9785 7.94962 5.95975 
277 1 106.42 15.9821 11.594 7.81121 
158 1 106.42 17.7294 9.71509 3.92062 
160 1 106.42 15.7038 9.82619 5.85336 
258 1 106.42 17.6836 9.72018 7.76586 
179 1 106.42 17.7794 11.7079 5.70743 
162 1 106.42 1.69992 13.6456 4.05107 
163 1 106.42 1.98842 11.9914 6.14405 
164 1 106.42 0.129403 13.7787 6.07264 
168 1 106.42 3.83297 13.8566 5.66151 
167 1 106.42 5.91637 11.8097 5.79442 
187 1 106.42 6.12952 15.4595 5.82156 
171 1 106.42 9.96339 11.8246 5.88724 
172 1 106.42 8.25737 13.64 5.94961 
176 1 106.42 11.9858 13.7753 5.97956 
180 1 106.42 15.5037 13.8603 5.58866 
274 1 106.42 13.9865 13.565 7.70951 
178 1 106.42 18.0758 13.5601 3.9466 
199 1 106.42 17.5974 15.4389 5.87397 
278 1 106.42 17.8083 13.6535 7.65143 
183 1 106.42 1.9522 15.7303 5.9596 
182 1 106.42 1.76742 17.4727 3.9731 
105 1 106.42 3.71541 19.5301 4.0903 
103 1 106.42 1.60626 19.5654 5.91956 
188 1 106.42 3.80832 17.6196 5.7222 
186 1 106.42 5.80783 17.5066 3.9428 
107 1 106.42 5.87884 19.3692 5.68899 
205 1 106.42 3.97465 19.5382 7.62992 
192 1 106.42 7.87706 17.7241 5.90005 
191 1 106.42 9.65642 15.8446 5.70658 
111 1 106.42 9.69855 19.5943 5.86309 
196 1 106.42 11.4421 17.838 5.84346 
293 1 106.42 11.5375 15.8773 7.64015 
194 1 106.42 13.6358 17.7248 3.95806 
117 1 106.42 15.5156 19.5523 4.15847 
195 1 106.42 13.7155 15.7321 5.86351 
115 1 106.42 13.538 19.4487 6.1361 
200 1 106.42 15.6086 17.5181 5.90887 
198 1 106.42 17.4309 17.4918 3.96884 
184 1 106.42 19.2574 17.632 5.81377 
119 1 106.42 17.5369 19.5197 5.59674 
217 1 106.42 15.721 19.4393 7.81889 
281 1 106.42 19.3276 15.7813 7.76278 
201 1 106.42 19.1238 19.4452 7.6155 
225 1 106.42 3.60577 3.90796 7.93155 
208 1 106.42 3.92404 1.89497 9.62134 
302 1 106.42 1.87737 2.21408 11.5763 
305 1 106.42 3.74308 0.163612 11.6539 
203 1 106.42 1.98632 0.0986498 9.45551 
229 1 106.42 7.70892 3.94603 7.99165 
227 1 106.42 5.63051 3.86412 9.85253 
309 1 106.42 7.71307 0.0800928 11.73 
212 1 106.42 7.93493 2.13209 9.84669 
233 1 106.42 11.7074 3.87943 7.9503 
231 1 106.42 9.88518 3.83993 10.0041 
216 1 106.42 11.7792 1.77233 9.81301 
211 1 106.42 9.83836 -0.00557672 9.82703 
214 1 106.42 13.5155 1.85063 8.01631 
314 1 106.42 13.6912 1.93176 11.6918 
235 1 106.42 13.862 3.77851 9.674 
337 1 106.42 15.5228 3.73126 11.6679 
333 1 106.42 11.942 3.83829 11.5666 
220 1 106.42 15.7443 1.88022 9.55921 
204 1 106.42 19.4646 1.77565 9.75248 
239 1 106.42 17.6489 3.77291 9.92823 
223 1 106.42 1.68507 4.01369 9.82528 
228 1 106.42 3.76835 5.92016 9.61774 
322 1 106.42 1.90528 6.06348 11.6227 
232 1 106.42 7.84455 5.85026 9.88636 
247 1 106.42 5.94389 7.68263 9.50657 
326 1 106.42 5.72985 5.77232 11.5167 
230 1 106.42 9.86716 5.46618 7.89935 
251 1 106.42 9.71581 7.60189 9.64345 
234 1 106.42 13.7853 5.83657 7.98821 
257 1 106.42 15.6955 7.75562 7.87833 
236 1 106.42 11.8463 5.78719 9.70982 
334 1 106.42 13.8135 5.90841 11.6594 
238 1 106.42 17.8225 5.88762 7.87269 
224 1 106.42 19.3974 5.91191 9.79271 
240 1 106.42 15.7398 5.84198 9.82285 
241 1 106.42 0.125809 7.97929 7.96946 
245 1 106.42 3.88029 7.94649 7.9373 
243 1 106.42 1.8389 7.9309 9.90209 
242 1 106.42 2.04018 9.82311 8.13567 
261 1 106.42 0.0755289 11.671 7.89524 
263 1 106.42 1.87092 11.6771 10.0349 
246 1 106.42 5.86905 9.95242 7.95742 
248 1 106.42 3.92149 9.52112 9.79502 
346 1 106.42 5.62307 9.72374 11.6874 
252 1 106.42 8.1466 9.77861 9.68338 
350 1 106.42 9.69982 9.49226 11.7271 
256 1 106.42 11.7441 9.63791 9.98587 
271 1 106.42 9.95151 11.5524 9.47345 
369 1 106.42 8.03978 11.4888 11.5941 
255 1 106.42 13.7748 7.9319 9.88672 
254 1 106.42 13.9277 9.73277 7.85765 
260 1 106.42 15.5706 9.76215 9.86747 
275 1 106.42 13.8302 11.7432 9.9089 
259 1 106.42 17.5755 7.95302 9.95623 
244 1 106.42 19.4109 9.58738 10.004 
279 1 106.42 17.8659 11.7592 9.77961 
262 1 106.42 1.9328 13.7826 7.90158 
265 1 106.42 3.85987 11.8369 7.93363 
264 1 106.42 0.0111663 13.915 9.89684 
362 1 106.42 2.16986 14.0258 11.5303 
266 1 106.42 5.61764 13.7625 7.87844 
267 1 106.42 5.90984 11.8061 9.82767 
268 1 106.42 4.11261 13.8365 9.69986 
365 1 106.42 3.98722 11.9781 11.7109 
289 1 106.42 7.90287 15.6002 8.2199 
272 1 106.42 7.93875 13.3402 9.64239 
270 1 106.42 10.0942 13.781 7.86928 
291 1 106.42 9.65381 15.5121 9.99112 
370 1 106.42 9.88243 13.5029 11.6217 
297 1 106.42 15.5644 15.5232 8.03487 
276 1 106.42 12.0298 13.8737 9.68179 
373 1 106.42 11.8218 11.8215 11.5802 
280 1 106.42 15.9483 13.7023 9.92885 
377 1 106.42 15.8504 11.8018 11.7447 
282 1 106.42 1.71858 17.6385 7.91726 
285 1 106.42 3.87523 15.8327 7.97778 
283 1 106.42 1.78589 15.9016 9.80421 
382 1 106.42 1.9569 17.5972 11.4908 
286 1 106.42 6.02054 17.5545 8.01345 
207 1 106.42 6.00428 19.6156 9.88651 
287 1 106.42 5.9481 15.7089 9.91811 
288 1 106.42 4.12281 17.6875 9.73929 
292 1 106.42 7.80283 17.6526 10.1611 
313 1 106.42 11.6645 19.4425 11.688 
290 1 106.42 9.57238 17.491 8.12359 
213 1 106.42 11.6496 19.309 7.97782 
296 1 106.42 11.6579 17.2861 9.54265 
390 1 106.42 9.6369 17.554 11.7307 
295 1 106.42 13.7698 15.7649 9.65772 
215 1 106.42 13.8187 19.5278 9.83908 
294 1 106.42 13.7373 17.6822 7.90807 
394 1 106.42 13.6953 17.5261 11.6612 
298 1 106.42 17.5319 17.7775 7.95777 
219 1 106.42 17.4168 19.5569 9.92647 
299 1 106.42 17.6748 15.8335 9.57228 
300 1 106.42 15.785 17.716 10.1038 
284 1 106.42 19.5271 17.908 9.93548 
301 1 106.42 0.033093 0.0165425 11.8545 
303 1 106.42 1.93209 0.108786 13.6781 
308 1 106.42 3.81744 1.99078 13.5917 
402 1 106.42 2.2075 2.26738 15.6621 
401 1 106.42 0.0470977 0.270198 15.537 
405 1 106.42 3.87605 0.118741 15.4648 
306 1 106.42 5.88082 1.83908 11.9025 
329 1 106.42 7.79692 3.86228 11.9853 
312 1 106.42 7.79258 1.94886 13.725 
406 1 106.42 5.75615 1.99428 15.5151 
310 1 106.42 9.686 2.0445 11.9681 
331 1 106.42 9.98469 3.86204 13.9241 
410 1 106.42 9.75852 1.70536 15.4302 
311 1 106.42 9.70067 0.0328796 13.5954 
316 1 106.42 11.7721 1.92057 13.3437 
320 1 106.42 15.5122 2.12144 13.66 
414 1 106.42 13.5445 1.95271 15.5411 
417 1 106.42 15.4996 0.185495 15.4229 
304 1 106.42 19.6058 2.236 13.6681 
318 1 106.42 17.6184 2.19446 11.8465 
319 1 106.42 17.5587 0.288289 13.8427 
317 1 106.42 15.8023 0.19276 11.8002 
325 1 106.42 3.73246 4.01292 11.8302 
321 1 106.42 -0.00727003 4.17155 11.9112 
323 1 106.42 2.06042 4.11423 13.7516 
343 1 106.42 1.98469 7.75676 13.6715 
425 1 106.42 3.92739 4.29441 15.6787 
445 1 106.42 3.87827 7.5563 15.6925 
345 1 106.42 4.0088 7.81569 11.8587 
349 1 106.42 7.36364 7.67516 11.8704 
327 1 106.42 5.70408 3.99557 13.87 
328 1 106.42 4.04134 5.87477 13.4475 
332 1 106.42 7.74837 5.73537 13.7388 
330 1 106.42 9.64125 5.96672 11.9506 
351 1 106.42 9.54611 7.77795 13.6949 
453 1 106.42 11.713 7.5632 15.6759 
353 1 106.42 11.8624 7.79322 11.8844 
335 1 106.42 13.7007 4.17545 13.6488 
336 1 106.42 11.7805 5.77585 13.7357 
434 1 106.42 13.832 6.08375 15.5757 
338 1 106.42 17.5913 5.73445 11.9566 
341 1 106.42 19.5213 7.59525 11.9572 
340 1 106.42 15.973 6.12152 13.783 
324 1 106.42 19.3996 5.76234 13.9221 
339 1 106.42 17.4561 3.97331 14.0506 
342 1 106.42 1.95912 9.57522 11.8887 
361 1 106.42 0.00457159 11.7461 11.8088 
344 1 106.42 0.0523302 9.98032 13.8121 
441 1 106.42 0.0822138 8.11859 15.5865 
363 1 106.42 2.10293 11.7654 13.6404 
461 1 106.42 0.164551 11.6606 15.6149 
347 1 106.42 5.86672 8.23468 14.1878 
348 1 106.42 3.93563 9.82386 13.6672 
352 1 106.42 7.84489 9.68095 13.7835 
367 1 106.42 5.7406 11.6842 13.5433 
371 1 106.42 10.0538 11.5655 13.5468 
356 1 106.42 11.6811 9.76597 13.955 
469 1 106.42 7.97804 11.7739 15.513 
357 1 106.42 15.4203 7.92988 11.9567 
355 1 106.42 13.5755 7.97129 13.8793 
354 1 106.42 13.5407 9.90991 11.7775 
457 1 106.42 15.5397 8.04265 15.7044 
477 1 106.42 15.4084 11.7823 15.5656 
359 1 106.42 17.731 8.13785 14.0602 
358 1 106.42 17.6914 9.61579 11.8976 
360 1 106.42 15.7177 9.96404 13.5439 
379 1 106.42 17.7244 11.5973 13.7489 
368 1 106.42 3.60737 13.7023 13.7481 
364 1 106.42 0.277406 13.7689 13.8102 
462 1 106.42 1.89992 14.2468 15.5959 
366 1 106.42 5.76751 13.8875 12.018 
372 1 106.42 7.57784 13.7529 13.7346 
389 1 106.42 7.66591 15.4529 11.8426 
393 1 106.42 11.5564 15.6509 11.9029 
470 1 106.42 9.6432 13.7121 15.4756 
376 1 106.42 11.6401 13.5115 13.6748 
493 1 106.42 11.769 15.6718 15.2884 
391 1 106.42 9.68034 15.51 13.3572 
374 1 106.42 13.8037 13.7608 11.8412 
375 1 106.42 13.65 11.8157 13.7169 
474 1 106.42 13.5267 13.8116 15.5431 
397 1 106.42 15.8133 15.5811 11.8122 
380 1 106.42 15.8462 13.742 13.6422 
378 1 106.42 17.8284 13.5812 11.8404 
478 1 106.42 17.7389 13.6757 15.6561 
383 1 106.42 1.88355 15.8972 13.8376 
482 1 106.42 1.90701 17.8322 15.685 
388 1 106.42 3.61748 17.6337 13.5381 
485 1 106.42 3.84824 15.8796 15.6447 
385 1 106.42 3.97152 15.7795 11.9303 
387 1 106.42 5.94157 15.9896 13.8279 
307 1 106.42 5.86386 19.5025 13.6919 
386 1 106.42 5.79661 17.8012 11.8562 
392 1 106.42 8.08657 17.6108 13.7632 
490 1 106.42 9.91426 17.4203 15.6207 
315 1 106.42 13.5341 19.5824 13.4295 
395 1 106.42 13.6035 15.8792 13.7298 
396 1 106.42 11.9655 17.8523 13.819 
400 1 106.42 15.354 17.8298 13.6346 
381 1 106.42 19.4731 15.7651 11.9303 
481 1 106.42 19.4892 15.9906 15.6346 
399 1 106.42 17.5903 15.7748 13.6432 
384 1 106.42 19.5373 17.8127 13.964 
398 1 106.42 17.5506 17.9652 12.0753 
498 1 106.42 17.3767 17.9254 15.4722 
2 1 106.42 1.93788 2.08037 19.6173 
404 1 106.42 0.0960812 1.87781 17.9178 
6 1 106.42 5.73197 1.84019 19.3552 
429 1 106.42 7.84675 3.81506 15.7769 
408 1 106.42 3.95887 2.35938 17.5198 
427 1 106.42 6.01509 3.90775 17.647 
412 1 106.42 7.77576 1.80602 17.7159 
407 1 106.42 5.75306 0.292264 17.5171 
413 1 106.42 11.6647 0.210365 15.7843 
416 1 106.42 11.7746 1.63065 17.7089 
411 1 106.42 9.52728 0.0224521 17.6023 
431 1 106.42 9.98714 3.61827 17.6681 
14 1 106.42 13.7916 1.97932 19.5877 
435 1 106.42 13.9532 3.86049 17.8004 
415 1 106.42 13.8019 0.00486003 17.4456 
433 1 106.42 11.895 3.9172 15.8148 
17 1 106.42 15.7981 0.162715 19.5216 
418 1 106.42 17.7146 1.9936 15.8309 
420 1 106.42 15.8269 2.04343 17.5998 
419 1 106.42 17.953 0.21605 17.4353 
439 1 106.42 17.882 3.78234 17.6978 
422 1 106.42 1.78321 5.97396 15.7363 
423 1 106.42 1.71621 4.00888 17.6973 
424 1 106.42 0.16552 6.18658 17.8919 
443 1 106.42 2.11289 7.83251 17.7972 
428 1 106.42 3.82185 5.70906 17.9762 
501 2 1.01 6.26588 7.92289 19.0691 
426 1 106.42 5.98677 5.81361 15.7203 
26 1 106.42 5.85668 5.81317 19.3207 
447 1 106.42 6.00939 7.78178 17.3512 
430 1 106.42 9.83671 5.54464 15.8771 
449 1 106.42 8.12989 7.58233 15.9703 
432 1 106.42 7.92794 5.61632 17.583 
451 1 106.42 9.97968 7.46116 17.6969 
436 1 106.42 12.4316 5.75344 17.6564 
437 1 106.42 15.531 4.203 15.7343 
440 1 106.42 15.6554 6.16419 17.759 
438 1 106.42 17.9234 6.21098 16.0552 
421 1 106.42 19.5788 3.94055 15.7555 
21 1 106.42 19.2937 4.01469 19.5978 
38 1 106.42 17.8264 6.20089 19.5724 
442 1 106.42 2.40389 9.53288 15.7118 
463 1 106.42 1.87518 11.7709 17.5247 
444 1 106.42 0.167981 9.68235 17.5464 
448 1 106.42 3.911 9.59389 17.6062 
61 1 106.42 0.0414158 11.4995 19.562 
45 1 106.42 4.21074 7.8937 19.552 
446 1 106.42 5.59116 10.0809 15.7984 
467 1 106.42 6.25953 11.7714 17.9471 
450 1 106.42 9.76839 9.74911 15.7105 
452 1 106.42 8.04077 9.77968 17.7563 
456 1 106.42 11.7071 9.5525 17.5671 
471 1 106.42 9.75551 11.5884 17.6944 
77 1 106.42 15.3602 11.7765 19.5851 
454 1 106.42 13.588 10.0094 15.7615 
57 1 106.42 15.6752 7.96215 19.5607 
455 1 106.42 13.8248 7.92111 17.752 
475 1 106.42 13.5485 11.7443 17.5945 
460 1 106.42 15.6383 9.97153 17.6799 
459 1 106.42 17.8238 7.94876 17.7609 
458 1 106.42 17.5597 10.0992 15.8441 
62 1 106.42 1.73067 13.7806 19.4061 
465 1 106.42 3.80563 11.8844 15.8669 
464 1 106.42 0.023164 13.9545 17.5394 
65 1 106.42 3.80292 11.8365 19.4085 
66 1 106.42 6.27566 13.5791 19.4527 
468 1 106.42 3.93663 14.099 17.9216 
466 1 106.42 5.63994 13.67 15.7338 
487 1 106.42 6.22831 15.5558 17.631 
73 1 106.42 11.7331 11.7892 19.6195 
70 1 106.42 9.94052 13.8206 19.3586 
473 1 106.42 11.5045 11.9222 15.8975 
472 1 106.42 7.9608 13.6297 17.4705 
476 1 106.42 11.7422 13.8002 17.5233 
495 1 106.42 13.6465 15.6798 17.553 
480 1 106.42 15.4316 13.6679 17.7117 
78 1 106.42 17.7737 14.0094 19.471 
497 1 106.42 15.7497 15.415 15.8465 
479 1 106.42 17.3704 11.8712 17.6206 
97 1 106.42 15.7625 15.6929 19.5807 
82 1 106.42 1.76987 17.7785 19.5137 
81 1 106.42 0.178394 16.1623 19.5027 
403 1 106.42 2.15583 19.5677 17.6871 
483 1 106.42 1.77469 15.9501 17.7214 
86 1 106.42 5.65483 17.9607 19.4619 
486 1 106.42 5.72522 17.7749 15.9541 
488 1 106.42 4.14681 17.7251 17.7262 
409 1 106.42 7.96377 19.2679 15.7317 
489 1 106.42 7.93819 15.7305 15.7477 
491 1 106.42 10.0224 15.7056 17.4402 
93 1 106.42 11.662 15.9074 19.4896 
492 1 106.42 7.88294 17.9575 17.835 
90 1 106.42 9.74517 17.705 19.5058 
13 1 106.42 11.612 19.4076 19.588 
494 1 106.42 13.7938 17.595 15.7675 
496 1 106.42 11.7939 17.674 17.5667 
94 1 106.42 13.8429 17.6743 19.4137 
484 1 106.42 19.5073 18.0307 17.3333 
499 1 106.42 17.749 15.8946 17.7371 
500 1 106.42 15.85 17.8936 17.6975 
98 1 106.42 17.5809 17.86 19.5452 
