ITEM: TIMESTEP
59900
ITEM: NUMBER OF ATOMS
501
ITEM: BOX BOUNDS pp pp pp
0.0000000000000000e+00 1.9629018200000001e+01
0.0000000000000000e+00 1.9629018200000001e+01
0.0000000000000000e+00 1.9629018200000001e+01
ITEM: ATOMS id type mass x y z 
125 1 106.42 3.86546 3.68911 3.91268 
4 1 106.42 -0.0624984 2.17564 1.84806 
3 1 106.42 1.84951 0.272165 2.01052 
5 1 106.42 3.79314 0.0932339 0.132518 
8 1 106.42 3.96089 2.06281 1.99227 
12 1 106.42 7.86751 2.00222 2.00127 
25 1 106.42 4.17736 3.89524 -0.0355082 
106 1 106.42 6.19196 2.00695 3.8992 
9 1 106.42 7.59474 -0.00998822 0.24739 
31 1 106.42 10.0444 3.9109 1.85265 
11 1 106.42 9.98158 -0.0943385 1.83975 
133 1 106.42 11.7413 3.71597 4.02865 
110 1 106.42 9.79491 1.6355 3.53147 
10 1 106.42 9.62796 1.83368 0.119358 
16 1 106.42 11.9769 1.81479 1.73716 
35 1 106.42 13.5701 4.05883 2.09372 
20 1 106.42 15.5154 1.87372 2.28871 
33 1 106.42 11.9427 3.76234 0.0442675 
18 1 106.42 17.5217 2.06375 0.0696109 
118 1 106.42 17.5899 2.0648 3.78004 
101 1 106.42 19.6204 -0.0235505 3.68432 
1 1 106.42 19.4326 -0.104592 0.188217 
23 1 106.42 2.23555 3.93327 1.98216 
122 1 106.42 1.94849 5.85457 4.01667 
22 1 106.42 2.09495 5.8155 0.167806 
24 1 106.42 0.14882 5.70858 2.14949 
41 1 106.42 0.252504 7.87078 0.359172 
27 1 106.42 6.00382 3.99451 1.97872 
28 1 106.42 3.95168 5.68546 2.33899 
47 1 106.42 6.0141 7.56249 1.93531 
29 1 106.42 7.99708 3.9086 0.217853 
32 1 106.42 8.11281 5.96393 2.0852 
30 1 106.42 10.2587 5.65895 0.21645 
36 1 106.42 11.6423 5.90607 2.41482 
51 1 106.42 10.0147 7.75406 2.03056 
49 1 106.42 8.06096 7.41963 0.0110057 
55 1 106.42 13.7562 7.72863 2.72211 
34 1 106.42 13.868 5.80812 0.431264 
40 1 106.42 15.6189 5.92622 2.17825 
37 1 106.42 15.9331 4.25941 -0.0674779 
39 1 106.42 17.6952 4.11288 1.84921 
137 1 106.42 16.0617 4.00499 3.94289 
43 1 106.42 2.16266 8.06307 1.83912 
42 1 106.42 2.15448 9.95934 0.0118192 
142 1 106.42 1.97834 9.99422 4.02786 
44 1 106.42 0.120822 9.90228 1.93094 
141 1 106.42 0.0469783 7.91669 3.79125 
48 1 106.42 4.12861 9.82645 1.9437 
46 1 106.42 6.50189 9.57405 0.118226 
67 1 106.42 5.95475 11.7131 2.04127 
145 1 106.42 4.12198 7.87796 3.75144 
169 1 106.42 7.82699 11.8495 3.66565 
52 1 106.42 8.07413 9.68478 2.11586 
71 1 106.42 10.1712 11.9178 2.13353 
69 1 106.42 8.2472 11.6038 0.225123 
50 1 106.42 9.90636 9.68156 0.197715 
53 1 106.42 12.0235 8.00968 0.32826 
56 1 106.42 11.8206 9.74056 2.17431 
54 1 106.42 13.6397 9.86328 0.188638 
154 1 106.42 14.0186 9.8398 3.97633 
60 1 106.42 16.0833 9.977 1.84634 
59 1 106.42 17.8272 7.91098 2.1971 
58 1 106.42 17.8664 9.89111 -0.00182461 
63 1 106.42 1.83487 11.8951 1.88598 
68 1 106.42 3.52283 13.6785 1.57113 
64 1 106.42 0.121392 13.7881 1.95607 
181 1 106.42 0.0149518 15.7279 3.8992 
166 1 106.42 6.01707 13.5851 3.83365 
185 1 106.42 4.10213 15.4919 3.90392 
87 1 106.42 5.70263 15.1287 1.82961 
189 1 106.42 7.84824 15.6304 3.73462 
165 1 106.42 4.00249 11.8508 3.84306 
72 1 106.42 8.09227 13.7229 1.76179 
170 1 106.42 9.81978 13.9313 3.9298 
76 1 106.42 11.7455 14.2862 1.67978 
75 1 106.42 13.6673 11.8859 2.10574 
174 1 106.42 13.6585 13.9903 3.76152 
197 1 106.42 15.7884 15.6762 3.71378 
173 1 106.42 11.8635 11.8594 4.08694 
74 1 106.42 13.8493 13.8548 -0.0415222 
79 1 106.42 17.7205 12.0485 1.57254 
80 1 106.42 15.7002 13.81 1.89085 
177 1 106.42 15.7587 11.9611 3.75737 
83 1 106.42 2.14652 15.7803 2.16889 
88 1 106.42 3.68787 17.7525 2.01098 
84 1 106.42 0.0155298 17.4442 1.99579 
85 1 106.42 3.94214 15.9059 0.072219 
7 1 106.42 5.67516 19.5462 1.89375 
92 1 106.42 7.33848 17.3879 1.76622 
109 1 106.42 7.80553 19.4255 3.76802 
91 1 106.42 9.744 15.807 1.79738 
96 1 106.42 12.012 17.6756 2.11728 
190 1 106.42 9.62633 17.7525 3.81558 
89 1 106.42 8.07758 15.7975 -0.0586821 
15 1 106.42 13.8796 19.6184 1.83758 
193 1 106.42 11.7384 15.7236 3.8376 
95 1 106.42 13.8109 15.9338 1.86558 
100 1 106.42 15.6453 17.7083 1.90707 
19 1 106.42 17.73 19.6385 2.0175 
99 1 106.42 17.8471 15.7347 1.9737 
102 1 106.42 1.87629 1.93229 3.80932 
108 1 106.42 3.83168 1.93064 5.96502 
123 1 106.42 1.94835 3.92419 5.81862 
104 1 106.42 0.0705869 1.89602 5.60515 
202 1 106.42 1.9605 1.96427 7.70159 
221 1 106.42 0.0855623 3.98605 7.69198 
127 1 106.42 5.74344 3.7663 5.89357 
206 1 106.42 5.84471 2.09944 7.78439 
209 1 106.42 7.75116 0.135284 8.03739 
112 1 106.42 7.9872 1.98862 5.82248 
210 1 106.42 9.89524 2.1702 7.98679 
116 1 106.42 11.5781 1.59215 6.05338 
131 1 106.42 10.0937 3.72043 5.62073 
113 1 106.42 11.9544 -0.00180141 4.0075 
114 1 106.42 13.7244 2.03362 3.8538 
135 1 106.42 13.6868 3.71261 6.21681 
120 1 106.42 15.4039 1.85776 5.92478 
121 1 106.42 19.6196 3.98146 4.00263 
237 1 106.42 15.957 3.8855 7.96849 
139 1 106.42 17.6007 3.57219 5.90199 
218 1 106.42 17.8877 1.82941 7.60174 
124 1 106.42 -0.102119 5.91593 5.93122 
222 1 106.42 1.8154 6.11404 7.621 
128 1 106.42 3.90959 5.82719 5.97372 
126 1 106.42 6.01816 5.92915 4.03974 
226 1 106.42 5.84982 5.8273 7.74426 
132 1 106.42 7.6564 5.83157 6.12724 
129 1 106.42 7.89159 4.09755 4.14204 
130 1 106.42 9.40716 6.12169 4.19627 
253 1 106.42 11.6829 7.48315 7.79331 
134 1 106.42 13.8854 5.71599 4.28613 
136 1 106.42 11.7834 5.6996 5.69947 
155 1 106.42 13.8837 7.71035 6.1285 
138 1 106.42 17.9095 5.84284 4.08108 
140 1 106.42 15.9619 5.76742 5.93709 
157 1 106.42 15.7949 7.84648 4.26268 
143 1 106.42 2.21014 7.81658 5.82172 
144 1 106.42 0.35691 9.84973 5.86861 
161 1 106.42 0.12977 11.8529 3.92633 
148 1 106.42 3.94474 10.1119 5.90765 
146 1 106.42 6.14742 9.99714 4.0596 
149 1 106.42 7.55453 7.94879 4.33596 
147 1 106.42 5.74565 7.93955 6.13164 
153 1 106.42 11.4291 7.85479 4.3852 
249 1 106.42 7.76842 7.73922 7.92817 
152 1 106.42 8.09782 10.0522 6.02315 
150 1 106.42 9.71816 9.6418 3.96896 
151 1 106.42 9.7224 7.82462 6.18446 
269 1 106.42 7.93212 11.8337 7.71999 
250 1 106.42 10.3054 9.75005 7.73371 
156 1 106.42 11.8348 9.94155 5.90932 
175 1 106.42 13.838 11.6836 5.87286 
273 1 106.42 12.1726 11.7889 7.82237 
159 1 106.42 17.94 7.94468 5.9018 
277 1 106.42 15.8317 11.679 7.98992 
158 1 106.42 17.5086 9.80802 3.83129 
160 1 106.42 15.6618 9.85541 5.88769 
258 1 106.42 17.699 9.73828 7.98725 
179 1 106.42 17.8349 11.5401 5.77946 
162 1 106.42 1.80526 13.7117 4.04191 
163 1 106.42 2.06388 11.9555 5.92987 
164 1 106.42 0.0725254 13.6586 6.00462 
168 1 106.42 3.84169 13.7349 5.70192 
167 1 106.42 5.71592 11.7978 6.00943 
187 1 106.42 6.10944 15.5034 5.87585 
171 1 106.42 9.98168 11.8416 5.68825 
172 1 106.42 8.12258 13.6353 5.94373 
176 1 106.42 12.1502 13.8372 5.88261 
180 1 106.42 15.5841 13.6051 5.57772 
274 1 106.42 14.1146 13.5788 7.60522 
178 1 106.42 18.0639 13.6129 4.11734 
199 1 106.42 17.6264 15.5589 5.80913 
278 1 106.42 17.7355 13.5896 7.64164 
183 1 106.42 1.81264 15.7665 5.87071 
182 1 106.42 1.94825 17.5827 3.85554 
105 1 106.42 3.72206 19.6879 3.96024 
103 1 106.42 1.59193 19.4652 5.8296 
188 1 106.42 3.79852 17.4576 5.6568 
186 1 106.42 5.88579 17.4848 3.82256 
107 1 106.42 5.985 19.4305 5.65211 
205 1 106.42 4.03765 19.4889 7.59292 
192 1 106.42 7.76909 17.6409 6.02104 
191 1 106.42 9.83624 15.7897 5.79648 
111 1 106.42 9.68214 19.6285 5.75139 
196 1 106.42 11.4539 17.782 5.91455 
293 1 106.42 11.623 15.8034 7.47932 
194 1 106.42 13.6733 17.592 4.0874 
117 1 106.42 15.484 19.6073 4.16205 
195 1 106.42 13.6839 15.8559 5.88908 
115 1 106.42 13.3561 19.4434 6.17376 
200 1 106.42 15.6669 17.5851 5.85138 
198 1 106.42 17.3431 17.4307 3.76484 
184 1 106.42 19.3963 17.6951 5.7479 
119 1 106.42 17.6378 19.6611 5.44787 
217 1 106.42 15.6418 19.4724 7.8543 
281 1 106.42 19.4158 15.8035 7.69347 
201 1 106.42 19.1404 19.4689 7.74978 
225 1 106.42 3.63407 3.92594 8.03786 
208 1 106.42 4.0011 1.73003 9.7571 
302 1 106.42 1.87974 2.03534 11.6105 
305 1 106.42 3.68761 0.161229 11.5351 
203 1 106.42 2.06906 0.124567 9.48036 
229 1 106.42 7.88148 4.13698 8.06843 
227 1 106.42 5.74388 3.67005 9.85094 
309 1 106.42 7.78318 -0.00168398 11.6072 
212 1 106.42 7.90383 2.20156 9.94947 
233 1 106.42 11.8079 4.02308 7.88925 
231 1 106.42 9.92839 3.94638 10.02 
216 1 106.42 11.7989 1.69415 9.84088 
211 1 106.42 9.81489 -0.0908681 9.87028 
214 1 106.42 13.5214 1.85626 7.94133 
314 1 106.42 13.7253 1.96046 11.7285 
235 1 106.42 13.7422 3.85719 9.77019 
337 1 106.42 15.4577 3.81308 11.7131 
333 1 106.42 11.8304 3.62256 11.5437 
220 1 106.42 15.8466 1.93385 9.48198 
204 1 106.42 19.4995 1.81124 9.83359 
239 1 106.42 17.6653 3.85924 9.87439 
223 1 106.42 1.73732 4.06364 9.74674 
228 1 106.42 3.91284 5.81803 9.71253 
322 1 106.42 1.9056 6.07093 11.5634 
232 1 106.42 7.87967 5.78569 9.90074 
247 1 106.42 5.95537 7.76095 9.45349 
326 1 106.42 5.63083 5.73025 11.4359 
230 1 106.42 9.85887 5.39299 7.8307 
251 1 106.42 9.79955 7.6028 9.82014 
234 1 106.42 13.9228 5.76651 7.90054 
257 1 106.42 15.6714 7.78129 7.9197 
236 1 106.42 11.9122 5.8834 9.78822 
334 1 106.42 13.8658 5.91565 11.6666 
238 1 106.42 17.6919 5.89665 8.00028 
224 1 106.42 19.4407 5.80562 9.93855 
240 1 106.42 15.6795 6.00334 9.8497 
241 1 106.42 0.0690639 8.07779 7.93101 
245 1 106.42 3.85259 7.93575 7.97064 
243 1 106.42 1.88452 7.88706 9.78363 
242 1 106.42 2.09072 9.90031 8.0178 
261 1 106.42 0.0568555 11.6771 7.79404 
263 1 106.42 1.90698 11.6777 9.87805 
246 1 106.42 6.02374 10.0498 7.94402 
248 1 106.42 3.79879 9.58046 9.85261 
346 1 106.42 5.62349 9.83561 11.6602 
252 1 106.42 8.05041 9.75109 9.67507 
350 1 106.42 9.76818 9.56734 11.8163 
256 1 106.42 11.7588 9.57893 9.78664 
271 1 106.42 10.0507 11.5344 9.49976 
369 1 106.42 8.11027 11.7133 11.5213 
255 1 106.42 13.7304 8.11929 9.87731 
254 1 106.42 13.9496 9.85626 7.89746 
260 1 106.42 15.6968 9.81535 9.96301 
275 1 106.42 13.7378 11.7114 9.73089 
259 1 106.42 17.6148 7.89339 9.90051 
244 1 106.42 19.488 9.59382 10.1177 
279 1 106.42 17.9036 11.7143 9.83217 
262 1 106.42 1.9018 13.6571 7.95986 
265 1 106.42 4.01922 11.907 7.99812 
264 1 106.42 -0.0262944 13.7949 9.90476 
362 1 106.42 2.04176 14.0781 11.5301 
266 1 106.42 5.61834 13.6815 7.85702 
267 1 106.42 5.80433 11.5983 9.83761 
268 1 106.42 4.10397 13.6845 9.9032 
365 1 106.42 3.87145 11.821 11.4319 
289 1 106.42 7.98673 15.597 8.09159 
272 1 106.42 7.98207 13.476 9.57352 
270 1 106.42 10.0056 13.6504 7.87229 
291 1 106.42 9.82242 15.4477 10.0258 
370 1 106.42 9.8968 13.3997 11.5524 
297 1 106.42 15.518 15.4634 8.04779 
276 1 106.42 11.976 13.9648 9.62064 
373 1 106.42 11.8677 11.6905 11.4617 
280 1 106.42 15.8732 13.6098 9.97762 
377 1 106.42 15.7808 11.8541 11.7604 
282 1 106.42 1.73389 17.7621 7.85398 
285 1 106.42 3.91178 15.7981 8.0172 
283 1 106.42 1.64311 15.8148 9.6166 
382 1 106.42 2.07878 17.5125 11.5847 
286 1 106.42 6.04255 17.5165 7.95076 
207 1 106.42 5.85562 19.581 9.84359 
287 1 106.42 5.81512 15.7131 9.90606 
288 1 106.42 4.05955 17.7394 9.81926 
292 1 106.42 7.82012 17.5154 9.94004 
313 1 106.42 11.6222 19.3394 11.6842 
290 1 106.42 9.53452 17.6606 7.90105 
213 1 106.42 11.6461 19.3446 8.11806 
296 1 106.42 11.5759 17.4196 9.64658 
390 1 106.42 9.64498 17.5388 11.7388 
295 1 106.42 13.6282 15.7023 9.67133 
215 1 106.42 13.7699 19.6335 9.72784 
294 1 106.42 13.7628 17.4944 7.93105 
394 1 106.42 13.7365 17.516 11.7671 
298 1 106.42 17.5738 17.7075 7.85383 
219 1 106.42 17.6287 19.5499 9.81646 
299 1 106.42 17.6958 15.6478 9.65463 
300 1 106.42 15.7131 17.7742 10.0092 
284 1 106.42 19.4528 17.9165 10.1233 
301 1 106.42 -0.00535712 0.158033 11.9358 
303 1 106.42 2.01574 0.24588 13.6362 
308 1 106.42 3.89194 1.94307 13.6581 
402 1 106.42 2.0938 2.20742 15.5237 
401 1 106.42 0.121744 0.113621 15.5837 
405 1 106.42 3.69216 0.119998 15.5648 
306 1 106.42 5.84804 2.0337 11.8435 
329 1 106.42 7.73442 4.01388 11.9754 
312 1 106.42 7.7808 2.03338 13.7669 
406 1 106.42 5.80223 1.93179 15.6262 
310 1 106.42 9.63933 2.16176 11.9627 
331 1 106.42 10.0578 3.87574 14.1246 
410 1 106.42 9.75132 1.52899 15.4238 
311 1 106.42 9.75654 0.0367555 13.5541 
316 1 106.42 11.7291 2.10313 13.4168 
320 1 106.42 15.5011 2.03667 13.6044 
414 1 106.42 13.7317 2.12183 15.5905 
417 1 106.42 15.5469 0.0977809 15.4815 
304 1 106.42 19.6586 2.31482 13.6898 
318 1 106.42 17.5164 2.11386 11.7667 
319 1 106.42 17.3617 0.221035 13.6591 
317 1 106.42 15.6563 0.254489 11.6888 
325 1 106.42 3.74688 3.86597 11.7445 
321 1 106.42 -0.0897391 4.08086 11.8613 
323 1 106.42 2.08454 4.22892 13.7288 
343 1 106.42 1.84729 7.46581 13.5766 
425 1 106.42 3.94544 4.19361 15.6409 
445 1 106.42 3.85845 7.5986 15.6424 
345 1 106.42 3.95046 7.84653 11.8853 
349 1 106.42 7.57086 7.66824 11.8136 
327 1 106.42 5.75921 3.97451 13.8025 
328 1 106.42 4.04539 5.90333 13.5317 
332 1 106.42 7.6573 5.69214 13.9564 
330 1 106.42 9.6491 6.00175 12.0234 
351 1 106.42 9.56547 7.64463 13.7517 
453 1 106.42 11.597 7.7021 15.6612 
353 1 106.42 11.8112 7.75277 11.7281 
335 1 106.42 13.6964 4.11396 13.6637 
336 1 106.42 11.6353 5.68959 13.5648 
434 1 106.42 14.0703 5.97856 15.5516 
338 1 106.42 17.5535 5.70349 11.9831 
341 1 106.42 19.457 7.6576 11.9204 
340 1 106.42 16.0011 6.12437 13.8402 
324 1 106.42 19.3705 6.01532 13.8979 
339 1 106.42 17.4647 3.95407 14.2103 
342 1 106.42 1.86758 9.6124 11.9305 
361 1 106.42 0.0344175 11.7345 11.8416 
344 1 106.42 0.135809 9.79826 13.8126 
441 1 106.42 0.0729258 7.93463 15.64 
363 1 106.42 2.14312 11.7689 13.7319 
461 1 106.42 0.150459 11.7259 15.5176 
347 1 106.42 5.91323 8.22393 14.2919 
348 1 106.42 3.91311 9.65362 13.609 
352 1 106.42 7.95851 9.66914 13.8665 
367 1 106.42 5.84694 11.6092 13.3876 
371 1 106.42 10.0514 11.4726 13.5773 
356 1 106.42 11.6473 9.87343 13.9077 
469 1 106.42 8.04108 11.8146 15.5087 
357 1 106.42 15.5746 7.91817 11.7044 
355 1 106.42 13.5316 8.02334 14.0645 
354 1 106.42 13.6257 10.0246 11.7583 
457 1 106.42 15.5885 8.13653 15.7291 
477 1 106.42 15.4366 11.909 15.481 
359 1 106.42 17.6898 8.08783 14.0374 
358 1 106.42 17.5859 9.71478 11.8333 
360 1 106.42 15.7529 10.0644 13.4207 
379 1 106.42 17.7534 11.7018 13.7604 
368 1 106.42 3.7072 13.5474 13.8281 
364 1 106.42 0.178425 13.9217 13.6291 
462 1 106.42 1.95071 14.2573 15.6715 
366 1 106.42 5.74992 13.9185 12.0134 
372 1 106.42 7.47935 13.6199 13.8399 
389 1 106.42 7.67931 15.4793 11.8005 
393 1 106.42 11.6499 15.5436 11.8721 
470 1 106.42 9.6421 13.7958 15.3422 
376 1 106.42 11.7386 13.6353 13.7766 
493 1 106.42 11.7466 15.6243 15.3964 
391 1 106.42 9.67929 15.4035 13.3675 
374 1 106.42 13.7573 13.7755 11.6788 
375 1 106.42 13.4627 11.78 13.7212 
474 1 106.42 13.5349 13.6527 15.4506 
397 1 106.42 15.7789 15.5484 11.7586 
380 1 106.42 15.8785 13.7189 13.7616 
378 1 106.42 17.8572 13.7518 11.8704 
478 1 106.42 17.6983 13.6161 15.5326 
383 1 106.42 1.77357 16.0381 13.6603 
482 1 106.42 1.8553 17.8432 15.6019 
388 1 106.42 3.72789 17.7124 13.7196 
485 1 106.42 3.8375 15.8937 15.6779 
385 1 106.42 4.15946 15.7208 11.8857 
387 1 106.42 5.92545 16.1083 13.8564 
307 1 106.42 5.95595 19.6354 13.6116 
386 1 106.42 5.59924 17.8383 11.7909 
392 1 106.42 8.08355 17.6443 13.8631 
490 1 106.42 9.86824 17.4751 15.6215 
315 1 106.42 13.5883 19.5882 13.389 
395 1 106.42 13.7931 15.7216 13.848 
396 1 106.42 11.8856 17.6695 13.7998 
400 1 106.42 15.4452 17.7915 13.7192 
381 1 106.42 19.5331 15.9861 11.9604 
481 1 106.42 19.3009 15.8632 15.7321 
399 1 106.42 17.4591 15.7191 13.8127 
384 1 106.42 19.526 17.8445 13.9215 
398 1 106.42 17.6319 17.9246 12.0311 
498 1 106.42 17.3425 17.9615 15.65 
2 1 106.42 2.08562 1.89245 19.6514 
404 1 106.42 0.138116 1.76009 17.8461 
6 1 106.42 5.86499 1.81566 19.3307 
429 1 106.42 8.03965 3.72455 15.6961 
408 1 106.42 3.71435 2.46884 17.4704 
427 1 106.42 6.01035 3.91113 17.6249 
412 1 106.42 7.83092 1.77272 17.7548 
407 1 106.42 5.65931 0.210739 17.5517 
413 1 106.42 11.7622 0.234282 15.6291 
416 1 106.42 11.8059 1.68312 17.7446 
411 1 106.42 9.62036 0.156704 17.6749 
431 1 106.42 10.0142 3.5712 17.7728 
14 1 106.42 14.0751 2.0616 19.5295 
435 1 106.42 13.9966 3.80508 17.8082 
415 1 106.42 13.8225 -0.0127097 17.3562 
433 1 106.42 11.8776 3.90382 15.7626 
17 1 106.42 15.8354 0.101856 19.4593 
418 1 106.42 17.6919 1.97105 15.757 
420 1 106.42 15.8204 1.94469 17.4872 
419 1 106.42 17.7068 0.185494 17.4714 
439 1 106.42 17.767 3.96993 17.6638 
422 1 106.42 1.76222 5.98054 15.7673 
423 1 106.42 1.64568 4.19487 17.7284 
424 1 106.42 0.115588 6.1135 17.8576 
443 1 106.42 2.10224 7.86065 17.7597 
428 1 106.42 3.82628 5.67477 17.8777 
501 2 1.01 5.89945 7.88822 19.1192 
426 1 106.42 5.89644 5.75304 15.8015 
26 1 106.42 5.73538 5.81944 19.5843 
447 1 106.42 5.94931 7.72105 17.3794 
430 1 106.42 10.0656 5.45368 15.8743 
449 1 106.42 8.34314 7.65279 15.8662 
432 1 106.42 7.9288 5.74774 17.7095 
451 1 106.42 10.1752 7.48642 17.7708 
436 1 106.42 12.2607 5.66592 17.665 
437 1 106.42 15.5613 4.13132 15.7513 
440 1 106.42 15.7434 6.17358 17.6922 
438 1 106.42 17.9159 6.06092 16.0688 
421 1 106.42 19.5607 3.98494 15.9283 
21 1 106.42 19.3067 3.96948 19.7884 
38 1 106.42 17.827 6.31566 19.6705 
442 1 106.42 2.35463 9.63736 15.6782 
463 1 106.42 1.71834 11.8447 17.3964 
444 1 106.42 0.142872 9.91083 17.5253 
448 1 106.42 3.98143 9.64948 17.7554 
61 1 106.42 0.0544483 11.6858 19.5165 
45 1 106.42 4.1205 7.97264 19.6036 
446 1 106.42 5.66532 10.3474 15.8414 
467 1 106.42 6.34697 11.6526 17.8342 
450 1 106.42 9.76073 9.78024 15.7608 
452 1 106.42 8.1116 9.6682 17.6904 
456 1 106.42 11.6154 9.67093 17.7498 
471 1 106.42 9.82618 11.6074 17.8535 
77 1 106.42 15.3186 11.8231 19.5598 
454 1 106.42 13.4756 9.7966 15.8897 
57 1 106.42 15.5538 8.07988 19.6584 
455 1 106.42 13.7917 7.9273 17.7536 
475 1 106.42 13.5302 11.7439 17.4912 
460 1 106.42 15.4944 9.87301 17.6472 
459 1 106.42 17.854 8.05925 17.6785 
458 1 106.42 17.4976 10.093 15.9275 
62 1 106.42 1.61172 13.9167 19.4807 
465 1 106.42 3.69486 11.8276 15.9077 
464 1 106.42 -0.0304761 13.8988 17.6139 
65 1 106.42 3.91514 11.7764 19.4743 
66 1 106.42 6.23242 13.6035 19.4694 
468 1 106.42 3.98959 14.1432 17.8997 
466 1 106.42 5.60655 13.672 15.6652 
487 1 106.42 6.22993 15.5607 17.6362 
73 1 106.42 11.8285 11.7875 19.58 
70 1 106.42 9.90985 13.8146 19.4509 
473 1 106.42 11.5011 11.8647 15.8817 
472 1 106.42 7.85185 13.7181 17.5669 
476 1 106.42 11.7957 14.0393 17.4898 
495 1 106.42 13.8185 15.5406 17.5766 
480 1 106.42 15.519 13.7756 17.7162 
78 1 106.42 17.7762 13.7419 19.5233 
497 1 106.42 15.7685 15.5655 15.7405 
479 1 106.42 17.22 11.6261 17.7604 
97 1 106.42 15.6031 15.6763 19.4659 
82 1 106.42 1.72469 17.9388 19.6449 
81 1 106.42 0.0827351 15.9986 19.6104 
403 1 106.42 2.17962 19.6457 17.5531 
483 1 106.42 1.91419 15.9074 17.4168 
86 1 106.42 5.73449 17.9572 19.4685 
486 1 106.42 5.69841 17.9126 15.8188 
488 1 106.42 3.97651 17.7211 17.6164 
409 1 106.42 7.85698 19.2869 15.5792 
489 1 106.42 7.83248 15.6808 15.6382 
491 1 106.42 9.83508 15.6533 17.4448 
93 1 106.42 11.7426 15.8454 19.6358 
492 1 106.42 7.73473 18.0007 17.9204 
90 1 106.42 9.61563 17.6854 19.5841 
13 1 106.42 11.6238 19.3421 19.5802 
494 1 106.42 13.6501 17.6599 15.7931 
496 1 106.42 11.7194 17.7358 17.5595 
94 1 106.42 13.7409 17.7711 19.3598 
484 1 106.42 19.455 18.0386 17.517 
499 1 106.42 17.6481 15.779 17.7087 
500 1 106.42 15.8339 17.8609 17.5873 
98 1 106.42 17.4591 17.6916 19.6853 
