ITEM: TIMESTEP
60500
ITEM: NUMBER OF ATOMS
501
ITEM: BOX BOUNDS pp pp pp
0.0000000000000000e+00 1.9629018200000001e+01
0.0000000000000000e+00 1.9629018200000001e+01
0.0000000000000000e+00 1.9629018200000001e+01
ITEM: ATOMS id type mass x y z 
125 1 106.42 4.08401 3.91942 4.15099 
4 1 106.42 -0.0722402 2.05033 1.96224 
3 1 106.42 1.82843 0.0801153 1.96519 
5 1 106.42 3.97092 -0.0206171 0.0864574 
8 1 106.42 4.03242 1.90406 1.87508 
12 1 106.42 7.78661 1.97498 1.89375 
25 1 106.42 4.07535 3.97577 -0.149619 
106 1 106.42 5.89373 1.96528 3.90054 
9 1 106.42 7.68965 -0.0349445 0.179856 
31 1 106.42 10.1361 3.89452 2.11342 
11 1 106.42 10.1389 -0.401182 1.89657 
133 1 106.42 11.965 3.85598 3.96447 
110 1 106.42 9.73266 1.648 3.53936 
10 1 106.42 9.67768 1.77712 0.188932 
16 1 106.42 11.9517 1.99916 1.96872 
35 1 106.42 13.7216 4.28127 2.06913 
20 1 106.42 15.6028 2.00276 2.08945 
33 1 106.42 12.1839 3.87068 -0.137252 
18 1 106.42 17.7627 1.89206 0.0513811 
118 1 106.42 17.7565 1.9415 3.58318 
101 1 106.42 19.6031 -0.184709 3.81657 
1 1 106.42 19.2377 -0.22669 0.0663682 
23 1 106.42 2.24719 3.87612 1.92068 
122 1 106.42 1.85128 6.23114 4.13592 
22 1 106.42 2.09552 5.89827 0.174828 
24 1 106.42 0.179484 5.98818 2.01567 
41 1 106.42 0.383677 7.97962 0.120256 
27 1 106.42 6.12409 3.88417 1.96508 
28 1 106.42 3.9339 5.85639 2.29192 
47 1 106.42 5.91076 7.7706 1.90762 
29 1 106.42 7.88125 3.96912 0.0363525 
32 1 106.42 7.98 5.80909 1.99145 
30 1 106.42 10.3984 5.72296 0.0115121 
36 1 106.42 11.7741 5.96897 2.68765 
51 1 106.42 10.1663 7.77109 2.0523 
49 1 106.42 8.22521 7.51626 -0.145662 
55 1 106.42 13.4866 7.70876 2.49205 
34 1 106.42 13.6681 5.92939 0.209637 
40 1 106.42 15.7566 5.93553 2.38998 
37 1 106.42 15.7104 4.20393 -0.0771831 
39 1 106.42 17.5366 4.2347 1.94991 
137 1 106.42 15.8273 3.89486 3.96146 
43 1 106.42 2.17361 7.85045 2.00057 
42 1 106.42 2.1085 10.1772 -0.102646 
142 1 106.42 2.01482 9.96001 4.00286 
44 1 106.42 0.0227352 9.98036 1.98831 
141 1 106.42 0.20536 7.95081 3.96341 
48 1 106.42 4.14659 9.81782 2.02259 
46 1 106.42 6.17123 9.57999 0.183118 
67 1 106.42 6.06438 11.6866 1.95469 
145 1 106.42 4.1217 7.88609 3.89508 
169 1 106.42 8.10809 12.0058 3.85098 
52 1 106.42 7.9515 9.54907 2.20996 
71 1 106.42 10.1294 12.1085 1.97609 
69 1 106.42 8.11222 11.6391 0.123681 
50 1 106.42 10.0977 9.56525 0.235481 
53 1 106.42 12.1556 7.68584 0.0106731 
56 1 106.42 11.6965 9.93949 2.17231 
54 1 106.42 13.5761 9.96129 0.152654 
154 1 106.42 13.8777 9.86096 4.07827 
60 1 106.42 15.8596 9.98643 1.65465 
59 1 106.42 17.9633 7.82965 2.16764 
58 1 106.42 17.9147 9.80655 -0.103812 
63 1 106.42 1.94476 11.7796 1.89085 
68 1 106.42 3.63784 13.6067 1.6018 
64 1 106.42 0.112264 13.8163 2.02207 
181 1 106.42 -0.158555 15.9536 4.0276 
166 1 106.42 5.82158 13.494 4.10963 
185 1 106.42 4.23785 15.5089 3.97448 
87 1 106.42 5.76954 15.1652 1.94277 
189 1 106.42 7.81887 15.73 3.83133 
165 1 106.42 3.85534 11.6943 3.76014 
72 1 106.42 8.05385 13.6364 1.7903 
170 1 106.42 9.71423 13.8661 3.89182 
76 1 106.42 11.7202 13.9126 1.76001 
75 1 106.42 13.5706 11.8458 2.27826 
174 1 106.42 13.7526 13.9525 3.87368 
197 1 106.42 15.8342 15.5031 3.61611 
173 1 106.42 11.7643 11.7204 4.13142 
74 1 106.42 13.5733 13.6358 -0.102122 
79 1 106.42 17.8432 12.0107 1.68923 
80 1 106.42 15.7274 13.8216 1.68439 
177 1 106.42 15.8632 12.0444 3.5761 
83 1 106.42 2.1071 15.6092 2.10533 
88 1 106.42 3.81019 17.6829 2.04473 
84 1 106.42 0.0322931 17.5206 1.99581 
85 1 106.42 3.9812 15.9347 -0.00840962 
7 1 106.42 5.74728 19.6582 2.0469 
92 1 106.42 7.29349 17.4529 1.83426 
109 1 106.42 7.74246 19.6753 3.5665 
91 1 106.42 9.70889 15.7512 1.94555 
96 1 106.42 12.1661 17.7139 2.2852 
190 1 106.42 9.73429 17.6684 3.85113 
89 1 106.42 7.97198 15.6206 -0.330437 
15 1 106.42 13.8365 19.6523 1.62358 
193 1 106.42 11.5835 15.7202 3.89041 
95 1 106.42 13.874 15.9558 1.97921 
100 1 106.42 15.7107 17.8026 1.9266 
19 1 106.42 17.5373 19.6524 1.90199 
99 1 106.42 17.6789 15.3655 1.94131 
102 1 106.42 1.97325 2.13446 3.55753 
108 1 106.42 3.98976 1.78064 5.83237 
123 1 106.42 2.01126 4.12761 5.81605 
104 1 106.42 0.0738862 1.83384 5.59543 
202 1 106.42 1.73284 1.78656 7.66162 
221 1 106.42 0.0229532 4.06755 7.81854 
127 1 106.42 5.85967 3.81189 5.99954 
206 1 106.42 5.83669 2.00886 7.81362 
209 1 106.42 7.96143 0.0904042 8.1753 
112 1 106.42 8.06467 2.06667 6.10445 
210 1 106.42 9.88439 2.03261 8.13515 
116 1 106.42 11.5941 2.00251 6.07218 
131 1 106.42 9.89473 3.69276 5.55074 
113 1 106.42 11.9617 -0.0498219 3.90286 
114 1 106.42 13.6473 1.97303 3.89256 
135 1 106.42 13.8979 3.79061 6.01782 
120 1 106.42 15.5505 1.89687 6.01245 
121 1 106.42 19.6686 3.94067 3.97756 
237 1 106.42 15.9291 3.94795 8.06795 
139 1 106.42 17.4675 3.6913 5.94796 
218 1 106.42 17.8768 1.86062 7.5785 
124 1 106.42 -0.340845 5.9982 6.04916 
222 1 106.42 1.73117 5.99148 7.8286 
128 1 106.42 3.9423 5.95028 5.96208 
126 1 106.42 6.128 5.88188 3.98813 
226 1 106.42 5.6173 5.67343 7.92264 
132 1 106.42 7.65664 5.93437 6.17079 
129 1 106.42 7.90521 3.76947 3.9003 
130 1 106.42 9.47435 6.232 4.0429 
253 1 106.42 11.7674 7.44045 7.85597 
134 1 106.42 13.7845 5.65672 4.48652 
136 1 106.42 11.5447 5.74778 5.79642 
155 1 106.42 13.8323 7.65553 6.21751 
138 1 106.42 17.7624 5.75794 3.98006 
140 1 106.42 15.902 5.88113 6.09953 
157 1 106.42 15.8466 7.84857 4.14563 
143 1 106.42 2.07356 7.8271 5.74832 
144 1 106.42 0.180875 9.73477 5.82077 
161 1 106.42 0.0675481 11.8736 3.81545 
148 1 106.42 3.99792 9.80927 5.86959 
146 1 106.42 5.99755 9.83223 4.12111 
149 1 106.42 7.65797 7.98919 4.35967 
147 1 106.42 5.63442 7.89519 6.14521 
153 1 106.42 11.6482 7.82661 4.36129 
249 1 106.42 7.83185 7.68014 7.99909 
152 1 106.42 8.1132 9.8559 5.95614 
150 1 106.42 9.70732 9.57117 4.06725 
151 1 106.42 9.46858 7.60186 6.27537 
269 1 106.42 7.91762 11.8949 7.68095 
250 1 106.42 10.049 9.71386 7.82751 
156 1 106.42 11.759 9.8132 6.00314 
175 1 106.42 13.8223 11.6865 5.77444 
273 1 106.42 12.0572 11.9624 7.86036 
159 1 106.42 17.7407 8.02292 5.85539 
277 1 106.42 15.7633 11.7993 8.12915 
158 1 106.42 17.4102 10.0531 3.81092 
160 1 106.42 15.8085 9.87377 6.07144 
258 1 106.42 17.6733 9.8047 8.18487 
179 1 106.42 17.8022 11.3259 5.97582 
162 1 106.42 2.14914 13.9185 3.89407 
163 1 106.42 2.14811 11.7858 5.70779 
164 1 106.42 0.0352921 13.5783 5.97213 
168 1 106.42 3.9224 13.7086 5.97803 
167 1 106.42 5.71204 11.8851 6.15009 
187 1 106.42 5.99936 15.6117 6.00031 
171 1 106.42 9.91275 11.9034 5.59169 
172 1 106.42 7.73982 13.7436 5.84458 
176 1 106.42 12.1156 13.7913 5.75479 
180 1 106.42 15.901 13.4093 5.70223 
274 1 106.42 14.1009 13.6668 7.65918 
178 1 106.42 17.7376 13.7438 4.14425 
199 1 106.42 17.5361 15.7969 5.77074 
278 1 106.42 17.5208 13.5202 7.74389 
183 1 106.42 1.73303 15.7554 5.83802 
182 1 106.42 2.1193 17.8651 3.83823 
105 1 106.42 3.89274 19.8874 3.85391 
103 1 106.42 1.84913 19.4211 5.76338 
188 1 106.42 3.93396 17.3119 5.76088 
186 1 106.42 5.86313 17.4813 3.77117 
107 1 106.42 6.02391 19.6439 5.69976 
205 1 106.42 4.11569 19.3558 7.53537 
192 1 106.42 7.67987 17.4797 6.01319 
191 1 106.42 9.84512 15.6258 5.88172 
111 1 106.42 9.52929 19.6554 5.70297 
196 1 106.42 11.5387 17.6807 5.90752 
293 1 106.42 11.7978 15.6022 7.60216 
194 1 106.42 13.8325 17.5081 4.17919 
117 1 106.42 15.3821 19.6218 4.02448 
195 1 106.42 13.7899 15.8937 5.92912 
115 1 106.42 13.4261 19.452 6.15308 
200 1 106.42 15.8109 17.6659 5.87658 
198 1 106.42 17.5368 17.6891 3.64997 
184 1 106.42 19.544 17.7074 5.66614 
119 1 106.42 17.7215 19.8236 5.43282 
217 1 106.42 15.5832 19.586 7.76801 
281 1 106.42 19.6061 15.7982 7.65494 
201 1 106.42 19.6182 19.5323 7.91284 
225 1 106.42 3.80565 3.91177 8.01139 
208 1 106.42 4.02425 1.78178 9.75238 
302 1 106.42 1.85047 1.9032 11.6466 
305 1 106.42 3.68543 -0.0074632 11.666 
203 1 106.42 1.96305 0.035222 9.59598 
229 1 106.42 7.91725 4.0012 8.03347 
227 1 106.42 5.93371 3.62876 9.74108 
309 1 106.42 7.88447 -0.105329 11.558 
212 1 106.42 7.8655 2.10191 10.0163 
233 1 106.42 12.0153 4.04857 7.8596 
231 1 106.42 9.89692 4.16265 9.97468 
216 1 106.42 11.687 1.70839 9.92733 
211 1 106.42 9.62723 -0.105948 9.92868 
214 1 106.42 13.6244 1.87767 7.81391 
314 1 106.42 13.7196 1.94078 11.6509 
235 1 106.42 13.6525 3.95462 9.8312 
337 1 106.42 15.599 4.04968 11.7465 
333 1 106.42 11.7007 3.69212 11.6096 
220 1 106.42 15.9107 1.92564 9.52397 
204 1 106.42 19.6153 1.97545 9.84727 
239 1 106.42 17.7455 3.99563 9.7988 
223 1 106.42 1.8388 3.99971 9.69538 
228 1 106.42 3.95693 5.79813 9.76895 
322 1 106.42 1.97723 5.83645 11.489 
232 1 106.42 7.87086 5.77993 9.95504 
247 1 106.42 5.83104 7.97705 9.7599 
326 1 106.42 5.69911 5.78934 11.5558 
230 1 106.42 9.86201 5.65911 7.67147 
251 1 106.42 9.87011 7.66508 10.0075 
234 1 106.42 14.0445 5.70189 7.80057 
257 1 106.42 15.8038 7.92551 7.95081 
236 1 106.42 11.9748 5.97244 10.0143 
334 1 106.42 13.8163 5.97453 11.8533 
238 1 106.42 17.5827 5.96109 8.06207 
224 1 106.42 19.5365 5.81655 10.0097 
240 1 106.42 15.6288 6.07178 9.89913 
241 1 106.42 -0.0311046 8.1017 7.81814 
245 1 106.42 3.82562 7.85688 7.85824 
243 1 106.42 1.90738 7.73282 9.66283 
242 1 106.42 2.07672 10.0185 7.65726 
261 1 106.42 0.00189112 11.66 7.78037 
263 1 106.42 1.81937 11.7302 9.66855 
246 1 106.42 6.16348 9.92654 7.79266 
248 1 106.42 3.73566 9.76104 9.94799 
346 1 106.42 5.94561 9.73924 11.6343 
252 1 106.42 7.91191 9.68214 9.73898 
350 1 106.42 9.86301 9.6307 11.8614 
256 1 106.42 11.7533 9.5577 9.54629 
271 1 106.42 10.1144 11.6122 9.61701 
369 1 106.42 7.95678 11.9047 11.5603 
255 1 106.42 13.7238 8.09919 9.77276 
254 1 106.42 13.8447 9.87025 7.85905 
260 1 106.42 15.9239 9.98517 9.99383 
275 1 106.42 13.7638 11.7979 9.65287 
259 1 106.42 17.6778 7.667 9.80545 
244 1 106.42 19.7578 9.76872 10.1271 
279 1 106.42 17.869 11.7261 9.93463 
262 1 106.42 1.96176 13.6181 8.03392 
265 1 106.42 3.95719 11.8185 8.06789 
264 1 106.42 -0.0893826 13.5893 9.81968 
362 1 106.42 1.83831 14.0599 11.6577 
266 1 106.42 5.94105 13.8094 7.82743 
267 1 106.42 5.92731 11.5212 9.90311 
268 1 106.42 3.93823 13.703 10.1094 
365 1 106.42 3.60103 11.5401 11.4851 
289 1 106.42 8.03423 15.5078 7.73852 
272 1 106.42 7.84922 13.7626 9.66649 
270 1 106.42 9.91894 13.496 7.74382 
291 1 106.42 9.96516 15.488 9.92158 
370 1 106.42 9.97489 13.3515 11.5666 
297 1 106.42 15.7862 15.5647 7.93133 
276 1 106.42 11.8173 13.8278 9.51744 
373 1 106.42 11.8032 11.612 11.425 
280 1 106.42 15.7638 13.5638 9.88462 
377 1 106.42 15.6618 12.0027 11.7752 
282 1 106.42 1.82501 17.8781 7.74522 
285 1 106.42 3.8575 15.7033 7.90267 
283 1 106.42 1.56326 15.7279 9.38908 
382 1 106.42 2.22809 17.5799 11.686 
286 1 106.42 5.94045 17.5356 7.7746 
207 1 106.42 5.75961 19.5968 9.67287 
287 1 106.42 5.76018 15.6459 9.796 
288 1 106.42 3.75495 17.718 9.74746 
292 1 106.42 7.79842 17.3598 9.6359 
313 1 106.42 11.6712 19.2762 11.6779 
290 1 106.42 9.58153 17.9092 7.60158 
213 1 106.42 11.5962 19.5109 8.12611 
296 1 106.42 11.5483 17.5233 9.96907 
390 1 106.42 9.7339 17.491 11.8158 
295 1 106.42 13.5724 15.6569 9.85754 
215 1 106.42 13.7034 19.6382 9.70618 
294 1 106.42 13.805 17.3892 7.96858 
394 1 106.42 13.7237 17.4721 11.7903 
298 1 106.42 17.4687 17.3747 7.70509 
219 1 106.42 17.7955 19.6915 9.74344 
299 1 106.42 17.7056 15.4637 9.88607 
300 1 106.42 15.6363 17.6682 9.83291 
284 1 106.42 19.5265 17.8181 10.1645 
301 1 106.42 -0.0834333 0.331074 12.0539 
303 1 106.42 1.97268 0.258926 13.5402 
308 1 106.42 4.07385 1.98296 13.723 
402 1 106.42 1.73887 2.15729 15.4119 
401 1 106.42 0.117275 0.123937 15.6256 
405 1 106.42 3.67629 0.134387 15.6931 
306 1 106.42 5.82648 2.18109 11.7663 
329 1 106.42 7.69829 4.24336 11.9086 
312 1 106.42 7.71007 2.05149 13.7878 
406 1 106.42 5.90302 1.8954 15.8046 
310 1 106.42 9.57936 2.19087 11.8486 
331 1 106.42 9.87965 3.79567 14.004 
410 1 106.42 9.69786 1.56577 15.6386 
311 1 106.42 9.87646 -0.108759 13.4202 
316 1 106.42 11.8115 2.08984 13.7986 
320 1 106.42 15.5524 2.02054 13.7044 
414 1 106.42 13.9437 2.23518 15.655 
417 1 106.42 15.5331 0.0511756 15.5712 
304 1 106.42 19.6621 2.32858 13.7907 
318 1 106.42 17.4954 2.00982 11.706 
319 1 106.42 17.3398 0.14414 13.4974 
317 1 106.42 15.4594 0.160339 11.455 
325 1 106.42 3.7545 3.64693 11.5274 
321 1 106.42 -0.129391 3.86554 11.8248 
323 1 106.42 1.91906 4.31073 13.6508 
343 1 106.42 1.81308 7.29699 13.615 
425 1 106.42 3.85996 3.98353 15.5645 
445 1 106.42 3.83034 7.66848 15.631 
345 1 106.42 3.94601 7.78825 11.7578 
349 1 106.42 7.76871 7.7941 11.7679 
327 1 106.42 5.84301 3.87215 13.654 
328 1 106.42 4.11057 6.01317 13.7417 
332 1 106.42 7.65087 5.79748 14.1909 
330 1 106.42 9.67601 5.80318 11.8895 
351 1 106.42 9.80587 7.5674 13.8196 
453 1 106.42 11.4807 7.84816 15.6601 
353 1 106.42 11.7679 7.77569 11.7133 
335 1 106.42 13.7189 4.01153 13.6861 
336 1 106.42 11.6719 5.75419 13.3751 
434 1 106.42 14.0524 5.92794 15.6327 
338 1 106.42 17.4384 5.7216 11.8661 
341 1 106.42 19.3073 7.83753 11.8114 
340 1 106.42 15.8642 6.13181 13.9136 
324 1 106.42 19.3181 6.07454 13.831 
339 1 106.42 17.6168 3.96405 14.1101 
342 1 106.42 1.82741 9.75227 11.8922 
361 1 106.42 0.150516 11.7799 11.935 
344 1 106.42 0.190059 9.52261 13.8173 
441 1 106.42 0.114829 7.8436 15.8852 
363 1 106.42 2.04702 11.6861 13.7575 
461 1 106.42 0.0252715 11.9453 15.3896 
347 1 106.42 6.12184 8.01308 14.3187 
348 1 106.42 3.82258 9.57306 13.6537 
352 1 106.42 7.99083 9.77642 13.8598 
367 1 106.42 6.01105 11.5377 13.3245 
371 1 106.42 9.76805 11.6786 13.6051 
356 1 106.42 11.7356 9.73217 13.727 
469 1 106.42 8.03368 11.7792 15.6521 
357 1 106.42 15.8127 7.85775 11.6289 
355 1 106.42 13.6028 8.01622 13.9533 
354 1 106.42 13.8237 9.94154 11.8311 
457 1 106.42 15.7837 8.21715 15.7017 
477 1 106.42 15.6006 11.8831 15.531 
359 1 106.42 17.5438 8.09023 13.9107 
358 1 106.42 17.6242 9.9238 11.8091 
360 1 106.42 15.6007 10.007 13.6198 
379 1 106.42 17.8195 11.8589 13.693 
368 1 106.42 3.98386 13.5701 13.8025 
364 1 106.42 0.0509407 14.0356 13.4718 
462 1 106.42 1.91433 13.9427 15.7057 
366 1 106.42 5.78253 13.6858 11.9267 
372 1 106.42 7.48049 13.5164 13.8661 
389 1 106.42 7.74068 15.6025 11.6721 
393 1 106.42 11.9829 15.5265 11.8096 
470 1 106.42 9.72063 13.8123 15.3756 
376 1 106.42 11.7804 13.7922 13.6531 
493 1 106.42 11.6635 15.6522 15.6665 
391 1 106.42 9.64377 15.3587 13.4941 
374 1 106.42 13.6804 13.7453 11.5756 
375 1 106.42 13.3438 11.6513 13.6708 
474 1 106.42 13.7227 13.5241 15.5516 
397 1 106.42 15.7085 15.6633 11.6406 
380 1 106.42 15.7141 13.67 13.7443 
378 1 106.42 17.8174 14.0022 11.8829 
478 1 106.42 17.7272 13.5343 15.6053 
383 1 106.42 1.7798 16.0236 13.5414 
482 1 106.42 1.79874 17.7578 15.5524 
388 1 106.42 3.96497 17.9754 13.9235 
485 1 106.42 4.03735 15.8628 15.6325 
385 1 106.42 4.08731 15.6682 11.873 
387 1 106.42 5.83725 16.1134 13.8938 
307 1 106.42 6.00879 19.7991 13.544 
386 1 106.42 5.58696 17.8524 11.7653 
392 1 106.42 7.92175 17.582 13.6923 
490 1 106.42 9.83859 17.7065 15.6636 
315 1 106.42 13.6683 19.6818 13.5497 
395 1 106.42 14.0949 15.4536 13.8341 
396 1 106.42 11.5964 17.3733 13.7046 
400 1 106.42 15.686 17.6425 13.7793 
381 1 106.42 19.495 16.1596 11.8373 
481 1 106.42 19.1649 15.692 15.8318 
399 1 106.42 17.4462 15.7828 13.9322 
384 1 106.42 19.4149 17.9205 13.7654 
398 1 106.42 17.5801 17.7 11.8884 
498 1 106.42 17.569 17.8272 15.7536 
2 1 106.42 2.13182 1.86025 19.6118 
404 1 106.42 0.156529 1.75236 17.7004 
6 1 106.42 5.94507 1.99692 19.5946 
429 1 106.42 8.1626 3.61018 15.8012 
408 1 106.42 3.41393 2.36972 17.5008 
427 1 106.42 6.06869 3.8253 17.5911 
412 1 106.42 7.87836 1.90523 17.6476 
407 1 106.42 5.47742 0.0234031 17.5451 
413 1 106.42 12.0074 0.0550625 15.3111 
416 1 106.42 11.9342 1.89451 17.8621 
411 1 106.42 9.94638 0.129488 17.7419 
431 1 106.42 9.93399 3.59606 17.8936 
14 1 106.42 14.386 2.05491 19.6001 
435 1 106.42 13.9842 3.86656 17.7139 
415 1 106.42 13.7685 0.102488 17.4837 
433 1 106.42 12.0807 3.7316 15.8074 
17 1 106.42 15.7853 -0.0361543 19.5089 
418 1 106.42 17.7183 1.91886 15.5378 
420 1 106.42 15.7427 1.89301 17.3954 
419 1 106.42 17.3703 0.0879387 17.683 
439 1 106.42 17.4998 4.17238 17.716 
422 1 106.42 1.86192 5.90093 15.8047 
423 1 106.42 1.69626 4.16964 17.906 
424 1 106.42 -0.0382506 6.08726 17.9137 
443 1 106.42 2.00393 7.92855 17.7353 
428 1 106.42 3.84051 5.82582 17.518 
501 2 1.01 5.65945 7.90186 19.5657 
426 1 106.42 5.83149 5.76536 15.8761 
26 1 106.42 5.80295 5.94856 19.9616 
447 1 106.42 5.90997 7.81098 17.5734 
430 1 106.42 10.1948 5.69424 16.0154 
449 1 106.42 8.38894 7.68112 15.837 
432 1 106.42 8.00561 5.78811 17.8408 
451 1 106.42 10.3694 7.53498 18.0156 
436 1 106.42 11.9751 5.68888 17.7297 
437 1 106.42 15.7527 3.89743 15.8357 
440 1 106.42 15.8734 6.14491 17.6453 
438 1 106.42 17.6686 5.8879 15.9262 
421 1 106.42 19.6043 3.9506 15.988 
21 1 106.42 19.688 4.00784 19.7644 
38 1 106.42 17.665 6.40366 19.8451 
442 1 106.42 2.03691 9.81444 15.6023 
463 1 106.42 1.71246 12.0911 17.4496 
444 1 106.42 0.074629 10.1052 17.5408 
448 1 106.42 4.21511 9.89332 17.9119 
61 1 106.42 0.121659 12.0383 19.3857 
45 1 106.42 4.00781 7.94138 19.7318 
446 1 106.42 5.89149 10.5432 15.7006 
467 1 106.42 6.34253 11.4907 17.7704 
450 1 106.42 9.87333 9.84702 15.8297 
452 1 106.42 8.10713 9.3912 17.6099 
456 1 106.42 11.6094 9.85313 17.9791 
471 1 106.42 9.89856 11.8176 17.9192 
77 1 106.42 15.4006 11.8232 19.6216 
454 1 106.42 13.3516 9.59485 15.9564 
57 1 106.42 15.4931 8.09671 19.9296 
455 1 106.42 13.5806 7.79133 17.7578 
475 1 106.42 13.563 11.8572 17.4729 
460 1 106.42 15.2967 9.73223 17.7032 
459 1 106.42 17.7908 8.25445 17.6167 
458 1 106.42 17.5236 10.0201 15.8044 
62 1 106.42 1.70535 14.0911 19.5038 
465 1 106.42 3.64638 11.9129 15.9857 
464 1 106.42 -0.214055 13.7431 17.555 
65 1 106.42 4.2146 11.7709 19.4961 
66 1 106.42 5.99872 13.5881 19.602 
468 1 106.42 3.97658 13.9956 17.7738 
466 1 106.42 5.60985 13.6836 15.6627 
487 1 106.42 5.98716 15.8025 17.6416 
73 1 106.42 11.9588 11.8734 19.606 
70 1 106.42 9.8628 13.7479 19.5343 
473 1 106.42 11.5006 11.7578 15.7848 
472 1 106.42 7.91562 13.7048 17.5814 
476 1 106.42 11.816 14.1348 17.5673 
495 1 106.42 13.9139 15.6408 17.4894 
480 1 106.42 15.8668 13.7276 17.5102 
78 1 106.42 17.6841 13.5948 19.4437 
497 1 106.42 15.7108 15.8732 15.6793 
479 1 106.42 17.2404 11.6076 17.9407 
97 1 106.42 15.5288 15.8063 19.4555 
82 1 106.42 1.90349 18.0547 19.738 
81 1 106.42 -0.169301 15.6593 19.619 
403 1 106.42 2.0646 19.8279 17.5184 
483 1 106.42 1.98487 15.9552 17.3299 
86 1 106.42 5.70587 17.6697 19.5133 
486 1 106.42 5.76932 17.9737 15.5682 
488 1 106.42 3.61205 17.6676 17.5634 
409 1 106.42 7.69067 19.5958 15.5285 
489 1 106.42 7.64664 15.6651 15.5101 
491 1 106.42 9.52589 15.6708 17.497 
93 1 106.42 11.905 16.0077 19.547 
492 1 106.42 7.53245 17.8604 17.7231 
90 1 106.42 9.60283 17.7285 19.6968 
13 1 106.42 11.811 19.4291 19.5349 
494 1 106.42 13.5209 17.6574 15.7405 
496 1 106.42 11.5389 17.7386 17.5183 
94 1 106.42 13.6883 17.8467 19.3234 
484 1 106.42 19.4751 17.7981 17.838 
499 1 106.42 17.4853 15.6314 17.695 
500 1 106.42 15.6465 17.6707 17.5015 
98 1 106.42 17.444 17.3903 19.8082 
