ITEM: TIMESTEP
62900
ITEM: NUMBER OF ATOMS
501
ITEM: BOX BOUNDS pp pp pp
0.0000000000000000e+00 1.9629018200000001e+01
0.0000000000000000e+00 1.9629018200000001e+01
0.0000000000000000e+00 1.9629018200000001e+01
ITEM: ATOMS id type mass x y z 
4 1 106.42 0.133986 2.11888 2.0896 
8 1 106.42 3.65434 2.05427 1.8679 
101 1 106.42 0.196249 0.0650027 3.8106 
5 1 106.42 3.77264 -0.108814 -0.0277646 
27 1 106.42 5.83519 3.72048 1.69666 
129 1 106.42 7.72949 3.86286 3.79071 
106 1 106.42 5.82598 1.66542 3.48465 
29 1 106.42 7.69451 3.81942 0.0885791 
12 1 106.42 7.85332 1.76473 1.81659 
109 1 106.42 7.99194 0.0788945 3.92423 
10 1 106.42 10.0986 2.14844 -0.189754 
31 1 106.42 9.81598 3.65006 1.97211 
11 1 106.42 10.0578 0.441963 1.91566 
16 1 106.42 11.9037 1.833 2.36372 
15 1 106.42 13.9894 -0.0322779 2.26462 
35 1 106.42 13.769 3.58791 2.16469 
13 1 106.42 11.7941 -0.0517019 0.0898186 
117 1 106.42 16.277 0.000552817 3.88659 
20 1 106.42 15.5744 1.84249 2.00883 
18 1 106.42 17.8487 1.85411 0.134167 
1 1 106.42 19.8362 0.116047 0.188651 
23 1 106.42 1.85018 4.10216 1.83731 
43 1 106.42 1.96765 7.67214 1.77109 
121 1 106.42 0.161576 4.00489 3.90596 
122 1 106.42 2.03669 6.109 3.81345 
25 1 106.42 3.59422 4.0588 0.0754759 
28 1 106.42 3.91657 6.13657 1.72208 
501 2 1.01 6.13077 7.87409 -0.0924353 
32 1 106.42 7.69528 5.64156 2.08521 
126 1 106.42 5.95517 5.66165 4.11212 
30 1 106.42 9.52338 5.96671 0.237318 
51 1 106.42 9.81714 7.6202 2.05736 
149 1 106.42 8.02669 7.7205 3.99072 
153 1 106.42 11.7336 7.64053 3.80851 
36 1 106.42 11.9357 6.00132 1.87914 
40 1 106.42 15.6777 5.63428 1.87899 
134 1 106.42 13.746 5.87718 3.86229 
33 1 106.42 11.6431 3.93564 0.0817196 
24 1 106.42 19.5261 6.1805 1.97012 
37 1 106.42 15.8437 3.85048 0.0780506 
39 1 106.42 17.6957 3.9218 2.02574 
38 1 106.42 17.645 5.95093 0.0843931 
138 1 106.42 17.4779 6.07754 3.83993 
48 1 106.42 3.66191 9.70432 2.13047 
44 1 106.42 0.192356 9.75228 1.9272 
49 1 106.42 7.70295 7.87303 0.261907 
47 1 106.42 5.74109 7.7678 2.11007 
46 1 106.42 5.99327 9.92451 0.0879711 
67 1 106.42 5.73775 11.7999 1.86041 
146 1 106.42 5.61349 9.62085 3.82958 
65 1 106.42 4.01182 11.7683 0.0176454 
53 1 106.42 11.3447 7.87076 -0.018845 
52 1 106.42 7.86386 9.72765 2.04079 
56 1 106.42 11.659 9.73377 1.90159 
55 1 106.42 13.8451 7.76489 1.90834 
60 1 106.42 15.6927 10.0679 2.17288 
75 1 106.42 13.6245 11.6958 1.56242 
59 1 106.42 17.4363 7.91186 1.91019 
58 1 106.42 17.6669 10.006 0.102188 
63 1 106.42 2.08545 11.5001 2.30669 
64 1 106.42 -0.0303354 13.72 2.08805 
162 1 106.42 2.10211 13.58 3.8934 
62 1 106.42 2.12229 13.5136 0.301767 
81 1 106.42 0.00419222 15.2839 0.0630897 
68 1 106.42 4.12491 14.0075 1.91483 
72 1 106.42 7.60735 13.829 1.94455 
71 1 106.42 9.72576 11.8311 2.09055 
170 1 106.42 9.58159 13.6618 4.11664 
76 1 106.42 11.6297 13.5182 2.10699 
73 1 106.42 11.4557 11.9936 0.227658 
70 1 106.42 9.51105 13.6366 0.213695 
93 1 106.42 11.6258 15.3609 0.0551987 
80 1 106.42 15.6434 13.6991 2.20785 
95 1 106.42 13.7126 15.6658 1.88361 
79 1 106.42 17.4103 11.9448 1.96366 
178 1 106.42 17.6345 13.7795 3.64372 
61 1 106.42 19.436 11.7096 -0.0445557 
83 1 106.42 2.05454 15.6809 1.85055 
3 1 106.42 1.88187 19.3679 1.92752 
182 1 106.42 1.82655 17.7676 3.81073 
185 1 106.42 3.92248 15.827 3.80302 
181 1 106.42 0.0126265 15.7363 3.62674 
7 1 106.42 6.06096 19.5855 1.72096 
105 1 106.42 4.02748 19.64 3.62668 
87 1 106.42 6.08453 16.111 1.94044 
88 1 106.42 3.83122 17.738 1.70706 
92 1 106.42 8.22501 17.7362 2.18695 
91 1 106.42 9.96606 15.6046 2.38149 
96 1 106.42 11.4294 17.8839 1.85957 
100 1 106.42 15.6297 17.5459 1.79308 
194 1 106.42 13.7454 17.846 3.83755 
17 1 106.42 15.5272 19.6912 0.129806 
94 1 106.42 13.6016 17.6369 0.252101 
19 1 106.42 18.0231 19.5353 2.00262 
99 1 106.42 17.6361 15.8055 1.9342 
84 1 106.42 19.5623 17.6354 1.91603 
198 1 106.42 17.7721 17.6382 3.87148 
98 1 106.42 17.4747 17.7845 -0.0911571 
102 1 106.42 1.97597 1.95799 3.90481 
202 1 106.42 2.21717 2.22127 7.75103 
103 1 106.42 1.82294 -0.0639365 5.83875 
123 1 106.42 1.95525 3.82064 5.77441 
201 1 106.42 0.29318 0.332899 7.83308 
108 1 106.42 4.15376 1.97946 5.84872 
127 1 106.42 6.05159 3.96343 5.85647 
110 1 106.42 9.90495 2.18467 4.1276 
112 1 106.42 7.88739 1.89036 5.57087 
116 1 106.42 11.894 2.08403 5.96315 
131 1 106.42 9.92674 3.76959 6.357 
210 1 106.42 9.54355 1.82676 7.6576 
114 1 106.42 13.859 2.206 4.18714 
115 1 106.42 14.124 0.188577 5.80538 
213 1 106.42 12.0348 -0.112439 7.81673 
118 1 106.42 17.8097 1.94164 3.92003 
104 1 106.42 19.4949 2.10281 5.90461 
137 1 106.42 15.8849 4.12563 3.93644 
120 1 106.42 15.7859 1.99303 5.93582 
237 1 106.42 15.7505 4.02384 7.67297 
125 1 106.42 3.94449 4.06507 3.88397 
128 1 106.42 3.96481 5.83963 5.93076 
124 1 106.42 0.0308914 5.79057 5.72476 
143 1 106.42 1.95673 7.89539 5.82442 
145 1 106.42 3.7896 7.7658 4.09083 
222 1 106.42 1.993 5.84119 7.81204 
147 1 106.42 5.80477 7.72032 5.47167 
226 1 106.42 6.11942 6.04021 7.81275 
132 1 106.42 8.24002 5.92368 5.95702 
130 1 106.42 10.0121 5.46048 4.01072 
151 1 106.42 9.96863 7.61406 5.81039 
133 1 106.42 11.9492 4.1516 3.98274 
135 1 106.42 13.6146 4.01689 6.0497 
136 1 106.42 11.9 6.09598 5.96332 
140 1 106.42 15.5635 5.7994 5.87982 
234 1 106.42 13.6431 5.95944 7.94138 
221 1 106.42 19.5632 4.00243 7.87389 
139 1 106.42 17.716 4.21647 5.8137 
141 1 106.42 19.6398 7.8927 3.88776 
142 1 106.42 1.8732 9.70673 4.29937 
165 1 106.42 3.9553 11.563 3.98151 
161 1 106.42 0.0124717 11.5556 3.71761 
148 1 106.42 3.84023 9.70677 6.05723 
163 1 106.42 1.85073 11.7109 6.16076 
167 1 106.42 6.05159 11.6646 6.00549 
152 1 106.42 7.70039 9.46185 5.89772 
169 1 106.42 7.61518 11.7501 4.09626 
173 1 106.42 11.5546 11.8982 4.25661 
150 1 106.42 9.78852 9.88445 3.88612 
156 1 106.42 11.7597 9.68962 5.91527 
171 1 106.42 9.48469 11.4367 6.10121 
273 1 106.42 11.4863 11.7819 7.98648 
155 1 106.42 13.7367 8.01068 6.03178 
154 1 106.42 13.2794 10.2334 3.95414 
157 1 106.42 15.7065 7.84999 4.12883 
160 1 106.42 15.7447 9.98254 5.88367 
158 1 106.42 17.8087 9.93136 4.05486 
144 1 106.42 19.6783 9.79996 6.19532 
159 1 106.42 17.7847 7.81576 6.14765 
258 1 106.42 17.5362 10.114 7.53889 
261 1 106.42 -0.0639676 11.9613 7.97396 
183 1 106.42 2.28139 15.3817 5.72641 
265 1 106.42 3.70081 11.9176 7.71861 
262 1 106.42 1.91271 13.8275 7.7178 
168 1 106.42 4.07824 13.5949 5.46413 
166 1 106.42 6.15602 13.9406 3.95946 
187 1 106.42 5.708 15.7158 5.69956 
189 1 106.42 8.01586 15.7781 4.13285 
172 1 106.42 8.08965 13.6318 6.06846 
176 1 106.42 11.5928 13.7613 6.03913 
174 1 106.42 13.728 13.6237 3.9845 
175 1 106.42 13.5093 11.7643 6.2004 
195 1 106.42 13.5771 15.6589 5.97153 
177 1 106.42 15.7342 11.7797 4.19944 
179 1 106.42 17.6513 12.1253 5.87227 
164 1 106.42 19.6097 13.8142 5.491 
180 1 106.42 15.6084 14.0605 6.0009 
281 1 106.42 0.14063 15.7933 7.64919 
282 1 106.42 2.02224 17.5465 7.65914 
188 1 106.42 3.85165 17.9403 5.78562 
184 1 106.42 0.133191 17.5051 5.46878 
107 1 106.42 5.59053 19.7547 6.03413 
289 1 106.42 7.50116 15.7609 7.69136 
186 1 106.42 6.15262 17.7183 3.83441 
286 1 106.42 5.64083 17.7448 7.68275 
111 1 106.42 10.0505 19.4373 5.95422 
113 1 106.42 11.761 19.5018 4.0174 
191 1 106.42 9.82346 15.7154 5.80046 
192 1 106.42 8.03851 17.5744 5.88123 
190 1 106.42 10.0852 17.6671 3.87019 
290 1 106.42 10.0416 17.5672 7.73974 
209 1 106.42 8.06218 19.4246 7.70859 
193 1 106.42 11.9595 15.5292 3.93408 
196 1 106.42 11.8348 17.5665 5.88542 
294 1 106.42 13.9645 17.7097 7.66476 
197 1 106.42 15.8115 15.7483 3.99503 
119 1 106.42 17.9068 19.6763 5.78613 
297 1 106.42 15.9135 15.9574 7.65927 
199 1 106.42 17.8663 15.7444 5.82813 
200 1 106.42 15.7802 17.7052 5.79068 
298 1 106.42 17.8349 17.8676 7.63211 
208 1 106.42 3.99332 2.1951 10.1205 
223 1 106.42 2.07267 3.89239 9.90078 
203 1 106.42 2.01595 0.14254 9.8604 
206 1 106.42 5.94231 1.97882 8.03428 
306 1 106.42 5.93374 1.89166 11.7386 
229 1 106.42 7.60182 4.03627 8.06744 
329 1 106.42 7.81073 3.53348 11.6342 
305 1 106.42 3.94421 -0.0939485 11.9624 
212 1 106.42 8.0581 1.53694 9.48737 
231 1 106.42 9.72183 3.69514 10.1404 
310 1 106.42 9.89709 1.88801 11.6827 
214 1 106.42 13.6746 1.99788 7.83955 
217 1 106.42 15.5734 0.158276 7.92949 
216 1 106.42 11.9537 2.00503 9.84622 
235 1 106.42 13.6765 3.99936 9.63917 
220 1 106.42 15.5646 1.98629 9.90954 
215 1 106.42 13.6622 0.14861 9.97741 
337 1 106.42 15.6239 3.86886 11.7265 
218 1 106.42 17.4911 2.07955 7.93085 
204 1 106.42 19.6976 1.90851 9.81474 
219 1 106.42 17.5077 0.0432298 9.72947 
318 1 106.42 17.8221 1.91686 11.6788 
239 1 106.42 17.6626 3.7791 9.89265 
228 1 106.42 3.88519 5.85837 10.0478 
224 1 106.42 0.0704823 5.71089 9.58663 
245 1 106.42 3.7386 7.88969 7.88489 
321 1 106.42 0.113514 3.94938 11.5298 
225 1 106.42 4.21524 4.242 8.09168 
227 1 106.42 5.72552 3.96672 9.88561 
232 1 106.42 7.89162 5.69504 10.1056 
247 1 106.42 5.81286 7.56943 10.099 
230 1 106.42 9.70268 6.09777 8.10184 
233 1 106.42 11.4975 3.98073 7.96603 
330 1 106.42 10.0901 5.76964 11.6929 
236 1 106.42 11.6734 5.69338 9.59246 
255 1 106.42 13.7749 7.77213 9.79931 
334 1 106.42 13.7751 5.83916 11.7272 
241 1 106.42 19.6007 7.66653 7.94321 
240 1 106.42 15.9056 5.97552 9.65015 
238 1 106.42 17.677 5.87225 7.76458 
338 1 106.42 17.8593 6.01219 11.6482 
242 1 106.42 1.89072 9.81313 8.11952 
243 1 106.42 2.10929 7.76566 9.75729 
248 1 106.42 3.855 9.63179 10.0997 
244 1 106.42 -0.0683037 9.94154 9.92574 
361 1 106.42 -0.205922 11.7786 11.6749 
246 1 106.42 5.61743 9.71143 8.01511 
269 1 106.42 7.65603 11.6197 8.04568 
249 1 106.42 7.77542 8.0202 7.87487 
267 1 106.42 5.75862 11.5547 9.98009 
252 1 106.42 7.34465 9.56571 10.1008 
365 1 106.42 4.13571 11.7732 11.6625 
251 1 106.42 9.71974 8.06162 9.96822 
253 1 106.42 11.6547 7.99344 8.04941 
250 1 106.42 9.74685 9.82307 8.00859 
256 1 106.42 11.5248 10.1402 9.92245 
350 1 106.42 9.8901 9.80425 11.8339 
254 1 106.42 13.7731 9.71602 8.00605 
354 1 106.42 13.3875 9.82635 11.8954 
277 1 106.42 15.7263 11.9119 7.87213 
275 1 106.42 13.8621 11.7199 9.95254 
353 1 106.42 11.8065 7.73419 11.6592 
259 1 106.42 17.7825 8.01349 9.78167 
257 1 106.42 15.7445 7.7033 7.76911 
260 1 106.42 15.8071 9.73307 9.61978 
358 1 106.42 17.9173 9.67211 11.8209 
285 1 106.42 3.91567 15.6436 7.61786 
263 1 106.42 1.94258 11.7958 9.90186 
268 1 106.42 3.82973 13.6959 9.47742 
264 1 106.42 0.194465 13.7323 10.0068 
266 1 106.42 5.87984 13.7638 7.75447 
287 1 106.42 5.9333 15.5777 9.60686 
366 1 106.42 5.70052 13.8257 11.4743 
270 1 106.42 9.7566 13.7576 7.83873 
271 1 106.42 9.65498 11.7909 9.91504 
272 1 106.42 7.70688 13.6698 9.70586 
370 1 106.42 9.71074 14.059 11.9524 
276 1 106.42 11.7176 13.4727 10.0696 
393 1 106.42 11.7377 15.6611 11.1913 
274 1 106.42 13.5001 13.4943 8.03993 
293 1 106.42 11.8731 15.5264 7.7607 
280 1 106.42 15.6024 13.7562 9.67767 
278 1 106.42 17.629 13.7516 7.89259 
279 1 106.42 17.6104 11.7385 9.75613 
378 1 106.42 17.5178 13.9094 11.531 
205 1 106.42 3.52034 19.5118 7.87198 
283 1 106.42 2.11869 15.7006 9.69465 
288 1 106.42 3.79321 17.97 9.83857 
284 1 106.42 0.449087 17.662 9.65164 
385 1 106.42 3.86026 15.8262 11.6097 
389 1 106.42 7.88565 15.8173 11.64 
207 1 106.42 5.98902 19.5268 9.63548 
386 1 106.42 5.78181 17.6635 11.863 
291 1 106.42 9.63032 15.8223 9.67703 
309 1 106.42 7.93531 19.6519 11.7372 
292 1 106.42 7.92951 17.8339 9.98112 
211 1 106.42 10.2304 19.734 9.61349 
390 1 106.42 9.89592 17.6596 11.7886 
295 1 106.42 13.755 15.6885 9.656 
296 1 106.42 11.9793 17.7438 9.59405 
300 1 106.42 15.4985 17.6082 9.75065 
299 1 106.42 17.7167 15.8757 9.46969 
317 1 106.42 15.7353 19.4736 11.733 
398 1 106.42 17.936 17.5109 11.5217 
301 1 106.42 19.6331 19.4378 11.6483 
302 1 106.42 1.75239 2.04704 11.8179 
303 1 106.42 1.8753 0.102122 13.7654 
405 1 106.42 3.80679 0.127348 15.4996 
308 1 106.42 3.97125 1.98202 13.7284 
323 1 106.42 1.72868 3.57172 14.13 
307 1 106.42 5.86179 0.148201 13.9165 
406 1 106.42 5.72778 2.08232 15.7077 
312 1 106.42 7.75126 2.01274 13.6256 
331 1 106.42 9.85924 3.6691 13.7153 
311 1 106.42 9.63277 0.108126 13.7027 
314 1 106.42 13.8516 1.93901 12.0407 
316 1 106.42 11.7993 1.85039 13.8916 
315 1 106.42 13.9757 -0.00713046 13.9209 
335 1 106.42 13.8403 3.58246 14.216 
313 1 106.42 11.7642 -0.0356159 11.8462 
320 1 106.42 16.0486 1.90186 13.7723 
304 1 106.42 19.3668 1.77139 13.6908 
322 1 106.42 2.16324 5.79049 12.0174 
345 1 106.42 3.97785 7.67926 11.9811 
341 1 106.42 0.357638 7.66972 11.7333 
343 1 106.42 2.0454 8.05549 14.2085 
328 1 106.42 3.69285 5.79539 13.9969 
324 1 106.42 0.245172 5.90385 13.7203 
325 1 106.42 4.13397 4.21944 12.3295 
326 1 106.42 5.92048 5.78217 11.8756 
327 1 106.42 6.07276 3.95126 13.8081 
347 1 106.42 5.9583 7.73387 13.8532 
332 1 106.42 7.9992 5.67176 13.4839 
349 1 106.42 8.07496 7.95019 11.7795 
336 1 106.42 11.6432 6.07447 13.541 
433 1 106.42 11.8707 4.1333 15.6638 
430 1 106.42 9.55402 6.00252 15.8254 
333 1 106.42 12.07 3.95314 12.0088 
340 1 106.42 15.7707 5.7847 13.4692 
434 1 106.42 14.054 5.70073 15.8559 
339 1 106.42 17.9693 4.03325 13.3897 
438 1 106.42 17.5812 6.11965 15.8295 
359 1 106.42 17.7864 7.66894 13.687 
437 1 106.42 16.0169 3.94202 15.5708 
421 1 106.42 19.2504 3.98099 15.3877 
342 1 106.42 2.01295 10.1066 11.7179 
344 1 106.42 0.267892 9.89552 13.6858 
363 1 106.42 1.95997 11.7742 13.6598 
348 1 106.42 3.84125 9.8665 13.6536 
369 1 106.42 7.75693 11.7895 11.973 
346 1 106.42 5.81574 9.79414 12.1064 
445 1 106.42 4.13876 7.61646 15.7096 
469 1 106.42 7.78057 11.64 15.5593 
465 1 106.42 4.18334 11.5805 15.3684 
351 1 106.42 10.1144 8.01948 13.8845 
352 1 106.42 8.07618 9.66276 13.6875 
356 1 106.42 11.878 10.0089 13.9636 
373 1 106.42 11.8248 11.8988 12.1402 
355 1 106.42 13.4822 7.85359 13.7957 
377 1 106.42 15.6883 11.3889 11.7029 
454 1 106.42 13.9092 9.91103 15.7051 
360 1 106.42 16.1805 9.63526 13.5568 
357 1 106.42 15.6598 7.83766 11.7574 
458 1 106.42 17.643 9.59871 15.6517 
362 1 106.42 2.11707 13.5209 12.0267 
381 1 106.42 -0.0567723 15.4434 11.8357 
368 1 106.42 3.79829 13.7805 13.8204 
485 1 106.42 3.89064 15.7821 15.5938 
481 1 106.42 0.121327 15.6107 15.537 
367 1 106.42 6.18258 11.9438 13.6855 
372 1 106.42 7.93704 13.8423 13.5727 
387 1 106.42 5.70692 15.6447 13.6035 
466 1 106.42 6.15824 13.7376 15.6224 
371 1 106.42 9.90987 11.8975 13.8983 
376 1 106.42 11.5449 13.8991 13.5914 
493 1 106.42 11.7007 15.8196 15.6218 
374 1 106.42 13.7181 13.7074 11.7048 
397 1 106.42 15.4304 15.5963 11.8276 
375 1 106.42 14.0845 11.7458 13.8249 
473 1 106.42 11.8272 11.8902 15.9195 
380 1 106.42 15.4571 13.8865 13.7165 
474 1 106.42 13.481 13.9626 15.6444 
497 1 106.42 15.5157 15.7415 15.5309 
364 1 106.42 19.5215 13.498 13.6087 
461 1 106.42 19.5147 11.8508 15.7261 
379 1 106.42 17.4762 11.8033 13.7964 
478 1 106.42 17.6498 13.9151 15.8068 
382 1 106.42 1.92548 17.8465 11.8321 
383 1 106.42 1.72063 15.7998 13.4418 
388 1 106.42 3.84677 17.5483 13.5668 
489 1 106.42 7.50368 15.7375 15.7099 
392 1 106.42 7.55409 17.7011 13.5792 
486 1 106.42 5.63414 17.6087 15.5291 
391 1 106.42 9.71878 15.8216 13.8913 
490 1 106.42 9.50189 17.6164 15.5897 
396 1 106.42 11.5955 18.0207 13.5922 
395 1 106.42 13.1483 15.8261 13.4227 
394 1 106.42 13.5357 17.7048 11.6682 
494 1 106.42 13.8435 17.7357 15.5009 
319 1 106.42 17.7361 19.4561 13.7282 
400 1 106.42 15.7509 17.6193 13.4173 
399 1 106.42 17.5357 15.6263 13.4178 
384 1 106.42 19.5392 17.6153 13.777 
498 1 106.42 17.6104 17.4343 15.3792 
2 1 106.42 1.95419 2.08742 19.2514 
402 1 106.42 1.93472 1.7931 16.0113 
423 1 106.42 2.00891 3.84257 17.4874 
6 1 106.42 5.892 1.8099 19.6805 
408 1 106.42 4.0003 1.64018 17.7289 
429 1 106.42 7.88079 3.71852 15.8532 
409 1 106.42 7.97265 0.40785 15.8063 
410 1 106.42 9.84398 1.93468 15.7182 
412 1 106.42 8.05698 2.21215 17.7671 
431 1 106.42 9.78049 4.07312 17.5987 
411 1 106.42 9.94819 0.142933 17.7402 
14 1 106.42 13.5793 1.99069 19.6368 
414 1 106.42 13.7955 1.67974 15.8514 
416 1 106.42 12.0584 2.22419 17.6012 
435 1 106.42 14.1024 3.61855 17.5115 
401 1 106.42 19.4441 0.102177 15.7248 
418 1 106.42 17.474 1.88058 15.9493 
404 1 106.42 19.5214 2.18365 17.5235 
420 1 106.42 15.807 1.8191 17.9954 
22 1 106.42 1.72494 5.89746 19.3917 
21 1 106.42 0.100439 3.89417 19.4674 
425 1 106.42 3.98497 4.00044 15.7966 
441 1 106.42 0.0241811 8.02571 15.6619 
422 1 106.42 1.8393 5.89942 15.8663 
428 1 106.42 3.80881 5.98904 17.7021 
26 1 106.42 5.90583 5.79665 19.5755 
427 1 106.42 5.68581 3.98613 17.6345 
426 1 106.42 6.15537 5.92068 15.7457 
432 1 106.42 8.05218 6.05676 17.9601 
436 1 106.42 11.5562 6.06804 17.8731 
34 1 106.42 13.6089 5.97818 19.5449 
453 1 106.42 11.8951 7.75444 15.9288 
457 1 106.42 15.4588 7.84681 15.6969 
439 1 106.42 17.5657 4.12376 17.573 
424 1 106.42 19.6662 5.91339 17.4637 
440 1 106.42 15.7699 5.89178 17.6768 
442 1 106.42 2.09152 9.94253 15.7162 
42 1 106.42 2.01049 9.6432 19.7003 
443 1 106.42 1.90754 7.85008 17.5484 
444 1 106.42 0.0913147 9.82687 17.865 
448 1 106.42 3.88832 9.99141 17.7088 
45 1 106.42 4.06718 7.97392 19.4538 
446 1 106.42 6.03885 9.70093 15.9046 
447 1 106.42 5.99923 7.8759 17.6883 
452 1 106.42 7.69605 10.0123 17.8493 
50 1 106.42 9.84356 9.81145 19.5481 
449 1 106.42 8.11881 7.84967 15.6519 
451 1 106.42 9.68406 7.87832 17.6114 
450 1 106.42 9.89067 9.79489 15.8676 
471 1 106.42 9.74479 11.6222 17.6 
54 1 106.42 13.4915 9.7293 19.556 
455 1 106.42 13.5302 7.88265 17.9879 
456 1 106.42 11.7306 9.8212 17.4413 
460 1 106.42 15.7596 9.72498 17.4924 
57 1 106.42 15.6921 7.81838 19.5308 
77 1 106.42 15.613 11.8643 19.5932 
41 1 106.42 19.3768 7.87629 19.5991 
477 1 106.42 15.7016 11.8321 16.0097 
459 1 106.42 17.8578 8.05186 17.6502 
479 1 106.42 17.6842 11.8705 17.5926 
462 1 106.42 2.09662 13.4155 15.8254 
463 1 106.42 1.88028 11.8113 17.627 
483 1 106.42 2.26208 15.1941 17.8485 
69 1 106.42 7.57611 12.2812 19.5578 
467 1 106.42 5.654 11.8507 17.5369 
468 1 106.42 4.17107 13.6595 17.2916 
66 1 106.42 5.71354 13.7324 19.4538 
470 1 106.42 9.37544 13.5501 15.8153 
472 1 106.42 7.91398 13.9839 17.8042 
476 1 106.42 11.6176 13.5897 17.6948 
74 1 106.42 13.7446 13.74 19.7191 
475 1 106.42 13.5144 11.7626 17.9518 
480 1 106.42 15.4214 13.9724 17.633 
464 1 106.42 19.486 13.756 17.5923 
78 1 106.42 17.4837 13.8464 19.5076 
82 1 106.42 1.96955 17.4203 19.2707 
482 1 106.42 1.90647 17.7386 15.7832 
403 1 106.42 1.85633 19.5866 17.7083 
488 1 106.42 4.01162 17.9701 17.5229 
89 1 106.42 7.98984 16.0197 19.8008 
85 1 106.42 4.17857 15.8021 19.6148 
407 1 106.42 6.09402 19.6289 17.3732 
487 1 106.42 5.93538 15.9455 17.6453 
86 1 106.42 5.82205 17.8734 19.3886 
492 1 106.42 7.88824 17.557 17.5052 
90 1 106.42 10.0518 17.5665 19.4356 
413 1 106.42 11.5869 19.5663 15.7735 
9 1 106.42 8.26352 19.4334 19.7049 
491 1 106.42 9.99222 15.666 17.4153 
415 1 106.42 13.7602 19.4412 17.6235 
496 1 106.42 11.8807 17.6751 17.71 
495 1 106.42 13.6263 15.8726 17.5644 
500 1 106.42 15.5551 17.4285 17.6679 
417 1 106.42 15.9314 19.4747 15.8557 
499 1 106.42 17.6564 15.6659 17.5667 
97 1 106.42 15.7509 15.7938 19.4323 
419 1 106.42 17.895 19.5492 17.7799 
484 1 106.42 19.5504 17.3466 17.7241 
