ITEM: TIMESTEP
63400
ITEM: NUMBER OF ATOMS
501
ITEM: BOX BOUNDS pp pp pp
0.0000000000000000e+00 1.9629018200000001e+01
0.0000000000000000e+00 1.9629018200000001e+01
0.0000000000000000e+00 1.9629018200000001e+01
ITEM: ATOMS id type mass x y z 
4 1 106.42 0.192325 2.26936 1.9302 
8 1 106.42 3.72438 1.98521 1.7793 
101 1 106.42 -0.0605671 -0.0582583 3.84407 
5 1 106.42 3.74282 -0.0547366 -0.0718047 
27 1 106.42 5.78035 3.6412 1.8134 
129 1 106.42 7.78551 3.9301 3.92126 
106 1 106.42 5.8884 1.69927 3.35988 
29 1 106.42 7.75567 3.96281 0.0452929 
12 1 106.42 7.863 1.96199 1.96356 
109 1 106.42 8.01045 -0.0203138 4.02789 
10 1 106.42 10.0172 1.96199 -0.330005 
31 1 106.42 9.80419 3.74019 1.85774 
11 1 106.42 9.98204 0.541654 1.98177 
16 1 106.42 11.9658 1.84941 2.31305 
15 1 106.42 13.9663 0.0106041 2.09577 
35 1 106.42 13.7389 3.77475 1.88934 
13 1 106.42 11.9444 0.071881 -0.0889858 
117 1 106.42 16.0426 -0.192312 4.01836 
20 1 106.42 15.5685 1.84794 2.17324 
18 1 106.42 17.8515 1.89466 0.0695885 
1 1 106.42 20.0006 0.0711649 0.000647165 
23 1 106.42 1.73002 4.10822 1.87573 
43 1 106.42 1.96951 7.80172 1.68776 
121 1 106.42 0.230162 4.01918 4.04005 
122 1 106.42 1.95829 6.10637 3.78367 
25 1 106.42 3.624 3.92689 -0.0596054 
28 1 106.42 3.81664 5.87663 1.76936 
501 2 1.01 6.20091 8.09057 0.221058 
32 1 106.42 7.64841 5.7654 2.1007 
126 1 106.42 5.80087 5.73636 4.07285 
30 1 106.42 9.45247 5.92366 0.321493 
51 1 106.42 9.79219 7.69475 1.92702 
149 1 106.42 7.85648 7.71196 4.01394 
153 1 106.42 11.8109 7.78358 3.9024 
36 1 106.42 11.7533 5.96715 1.81242 
40 1 106.42 15.6167 5.6577 1.62433 
134 1 106.42 13.8109 5.76532 3.84603 
33 1 106.42 11.7123 3.9298 -0.143126 
24 1 106.42 19.5116 5.87224 2.12716 
37 1 106.42 15.7274 3.68599 -0.0330763 
39 1 106.42 17.4989 3.81394 1.92249 
38 1 106.42 17.6192 5.7802 -0.140805 
138 1 106.42 17.5748 6.11948 3.88394 
48 1 106.42 3.7169 9.56516 2.26799 
44 1 106.42 -0.130064 9.72261 1.95207 
49 1 106.42 7.78697 7.92164 0.0415885 
47 1 106.42 5.86311 7.65829 1.883 
46 1 106.42 5.94703 10.0437 0.130476 
67 1 106.42 5.61076 11.8815 1.98934 
146 1 106.42 5.77866 9.63225 3.85358 
65 1 106.42 3.9025 11.7635 -0.0190654 
53 1 106.42 11.5879 7.91901 -0.00907608 
52 1 106.42 7.72094 9.83089 2.02268 
56 1 106.42 11.6279 9.76401 1.86115 
55 1 106.42 13.9846 7.84813 1.94451 
60 1 106.42 15.5901 9.99591 2.19139 
75 1 106.42 13.6586 11.6795 1.80145 
59 1 106.42 17.3882 8.01014 1.90267 
58 1 106.42 17.7214 9.923 -0.0325998 
63 1 106.42 2.01736 11.4325 2.37203 
64 1 106.42 -0.211573 13.5658 1.8994 
162 1 106.42 2.05941 13.6242 3.81891 
62 1 106.42 1.95243 13.5797 0.137516 
81 1 106.42 0.0177633 15.6465 0.0270124 
68 1 106.42 4.09319 13.9973 2.02401 
72 1 106.42 7.55739 13.9101 1.87012 
71 1 106.42 9.69118 11.6693 2.06253 
170 1 106.42 9.5875 13.6562 4.35234 
76 1 106.42 11.6757 13.6166 2.10459 
73 1 106.42 11.4788 11.8183 -0.080982 
70 1 106.42 9.64187 13.5589 0.222298 
93 1 106.42 11.6725 15.3319 0.0561353 
80 1 106.42 15.6716 13.8627 2.16144 
95 1 106.42 13.8468 15.706 1.85675 
79 1 106.42 17.4633 11.8468 2.03185 
178 1 106.42 17.5881 14.0154 3.88901 
61 1 106.42 19.5658 11.6473 -0.143765 
83 1 106.42 2.12759 15.5077 1.80972 
3 1 106.42 1.71452 19.571 1.89202 
182 1 106.42 2.17401 17.8129 3.70452 
185 1 106.42 4.01523 15.9462 3.78942 
181 1 106.42 0.0329024 15.605 3.60993 
7 1 106.42 5.88277 19.3733 1.85112 
105 1 106.42 3.999 19.6101 3.80973 
87 1 106.42 6.07458 15.9911 1.71524 
88 1 106.42 3.80221 17.6832 1.76536 
92 1 106.42 8.17798 17.7721 2.19853 
91 1 106.42 9.88506 15.4216 2.29452 
96 1 106.42 11.4606 17.8263 1.91655 
100 1 106.42 15.7944 17.776 1.78508 
194 1 106.42 13.894 17.6544 3.94577 
17 1 106.42 15.4763 19.6684 0.186049 
94 1 106.42 13.6677 17.6096 0.213883 
19 1 106.42 17.9214 19.6105 2.01433 
99 1 106.42 17.7424 15.8025 1.74642 
84 1 106.42 19.7795 17.444 1.75485 
198 1 106.42 17.7155 17.4977 3.81396 
98 1 106.42 17.5422 17.8057 -0.223957 
102 1 106.42 1.845 1.80871 3.9485 
202 1 106.42 2.47476 2.4112 7.88845 
103 1 106.42 1.83295 -0.0365355 5.92523 
123 1 106.42 2.28193 3.86187 5.7248 
201 1 106.42 0.0864495 0.0912955 8.00308 
108 1 106.42 4.01303 2.04177 5.90834 
127 1 106.42 6.05948 3.90285 5.89704 
110 1 106.42 9.85582 2.12113 4.16803 
112 1 106.42 7.69066 1.96234 5.79742 
116 1 106.42 11.9323 1.91463 5.84763 
131 1 106.42 9.86311 3.90254 6.17219 
210 1 106.42 9.58812 1.8644 7.63077 
114 1 106.42 13.996 2.29874 4.19263 
115 1 106.42 14.0222 0.0850583 5.58732 
213 1 106.42 12.2727 -0.14799 7.91721 
118 1 106.42 17.7291 2.06203 3.73727 
104 1 106.42 19.5051 2.18122 6.09087 
137 1 106.42 15.8048 4.09155 3.93736 
120 1 106.42 15.7856 2.12277 5.8969 
237 1 106.42 15.6402 4.10054 7.80021 
125 1 106.42 4.04825 3.91515 3.77219 
128 1 106.42 3.96855 5.6995 5.82369 
124 1 106.42 -0.053672 5.83275 5.8229 
143 1 106.42 1.95698 7.85494 6.06643 
145 1 106.42 3.75184 7.88679 3.83542 
222 1 106.42 1.95592 5.87845 7.73016 
147 1 106.42 5.58249 7.79062 5.61115 
226 1 106.42 6.21958 6.17671 7.75686 
132 1 106.42 8.03851 5.75909 5.88552 
130 1 106.42 9.86955 5.49448 3.9585 
151 1 106.42 9.97725 7.73585 5.91897 
133 1 106.42 11.941 4.07457 3.86669 
135 1 106.42 13.6106 4.06585 5.94746 
136 1 106.42 11.929 6.26439 6.04589 
140 1 106.42 15.4759 5.79161 5.87229 
234 1 106.42 13.8403 5.99186 8.02345 
221 1 106.42 19.704 3.8604 7.97677 
139 1 106.42 17.6906 4.10718 5.86618 
141 1 106.42 19.6378 8.02892 3.88123 
142 1 106.42 1.77845 9.70231 4.24677 
165 1 106.42 4.13613 11.6206 4.01473 
161 1 106.42 -0.158839 11.6459 3.70167 
148 1 106.42 3.94386 9.6532 6.03514 
163 1 106.42 1.67575 11.7427 6.13323 
167 1 106.42 5.94115 11.5949 5.9309 
152 1 106.42 7.83315 9.58129 5.92015 
169 1 106.42 7.51907 11.7873 3.92136 
173 1 106.42 11.4107 12.0604 4.23466 
150 1 106.42 9.66714 9.81872 3.92474 
156 1 106.42 11.8157 9.77522 5.80936 
171 1 106.42 9.66087 11.436 6.04506 
273 1 106.42 11.37 11.7689 8.07365 
155 1 106.42 13.6151 8.03349 5.77356 
154 1 106.42 13.4189 10.075 3.75979 
157 1 106.42 15.6493 7.83738 4.18683 
160 1 106.42 15.669 9.82716 6.00686 
158 1 106.42 17.8117 9.78747 4.00633 
144 1 106.42 19.7294 9.65519 6.28934 
159 1 106.42 17.8754 7.79397 5.97075 
258 1 106.42 17.5247 10.0611 7.47387 
261 1 106.42 -0.173762 11.9454 8.04048 
183 1 106.42 2.19214 15.5374 5.75367 
265 1 106.42 3.73293 11.8451 7.78631 
262 1 106.42 1.98475 13.9405 7.81506 
168 1 106.42 4.0732 13.7615 5.37774 
166 1 106.42 6.26928 13.9362 3.92553 
187 1 106.42 5.74986 15.9261 5.65175 
189 1 106.42 8.08007 15.8353 4.1321 
172 1 106.42 7.92134 13.8004 6.32714 
176 1 106.42 11.5881 13.629 6.02635 
174 1 106.42 13.6212 13.5182 3.90428 
175 1 106.42 13.4483 11.6099 6.29375 
195 1 106.42 13.5765 15.7262 5.96994 
177 1 106.42 15.5139 11.8249 4.1576 
179 1 106.42 17.8536 12.0711 5.88413 
164 1 106.42 19.7036 13.6792 5.54077 
180 1 106.42 15.522 13.9939 5.91375 
281 1 106.42 0.105508 15.7563 7.76259 
282 1 106.42 2.1325 17.6982 7.6809 
188 1 106.42 3.80551 17.6669 5.55172 
184 1 106.42 0.167022 17.4072 5.65311 
107 1 106.42 5.7429 19.8289 6.10897 
289 1 106.42 7.68812 15.6985 7.8069 
186 1 106.42 6.12829 17.8009 3.87273 
286 1 106.42 5.52947 17.7905 7.73195 
111 1 106.42 9.9904 19.4491 5.84578 
113 1 106.42 11.98 19.7664 3.98042 
191 1 106.42 9.80871 15.6658 6.00921 
192 1 106.42 7.95323 17.6362 5.89826 
190 1 106.42 9.99895 17.8056 3.99716 
290 1 106.42 9.83598 17.5759 7.94971 
209 1 106.42 7.86786 19.4442 7.65011 
193 1 106.42 11.8235 15.437 3.89389 
196 1 106.42 11.7413 17.6699 5.90306 
294 1 106.42 14.1221 17.7142 7.82493 
197 1 106.42 15.6582 15.7183 4.00874 
119 1 106.42 17.8997 19.7118 5.77344 
297 1 106.42 15.8847 15.9831 7.83338 
199 1 106.42 17.7374 15.6968 5.89998 
200 1 106.42 15.8414 17.701 5.7172 
298 1 106.42 17.8106 17.7919 7.53209 
208 1 106.42 4.00845 2.305 10.3467 
223 1 106.42 2.11569 3.98975 10.0183 
203 1 106.42 1.99899 0.336441 9.68231 
206 1 106.42 5.91833 2.05487 7.87244 
306 1 106.42 5.87892 1.76708 11.934 
229 1 106.42 7.7315 4.03558 7.98067 
329 1 106.42 7.76271 3.60451 11.6823 
305 1 106.42 3.84359 -0.0713966 12.164 
212 1 106.42 7.9886 1.56472 9.65805 
231 1 106.42 9.94521 3.80208 9.92479 
310 1 106.42 9.95931 1.86438 11.7522 
214 1 106.42 13.698 2.18529 7.7101 
217 1 106.42 15.5777 0.139175 7.84566 
216 1 106.42 11.9943 1.95401 9.82324 
235 1 106.42 13.8541 4.04318 9.53328 
220 1 106.42 15.678 2.13647 9.85685 
215 1 106.42 13.9058 0.162982 10.1299 
337 1 106.42 15.7059 3.88225 11.7725 
218 1 106.42 17.6305 2.03332 7.833 
204 1 106.42 19.724 2.05801 9.77172 
219 1 106.42 17.5558 -0.0771472 9.60929 
318 1 106.42 17.8079 1.90945 11.7715 
239 1 106.42 17.7569 3.77707 9.94518 
228 1 106.42 3.91082 5.99564 10.1329 
224 1 106.42 -0.0230567 5.81253 9.73469 
245 1 106.42 3.89143 7.84316 7.82281 
321 1 106.42 0.0627048 3.99894 11.7262 
225 1 106.42 4.05793 4.13358 8.00517 
227 1 106.42 5.96796 3.93984 10.0018 
232 1 106.42 8.07771 5.72242 9.99313 
247 1 106.42 5.90521 7.47607 9.96562 
230 1 106.42 9.72902 5.98005 8.08679 
233 1 106.42 11.5708 3.87382 8.00605 
330 1 106.42 9.89157 5.78209 11.7502 
236 1 106.42 11.6127 5.9056 9.62676 
255 1 106.42 13.6416 7.88936 9.88582 
334 1 106.42 13.7371 5.88793 11.8447 
241 1 106.42 19.7766 7.8801 7.92654 
240 1 106.42 15.8141 6.10223 9.76125 
238 1 106.42 17.7564 5.84195 7.76035 
338 1 106.42 17.8334 5.87278 11.6139 
242 1 106.42 1.94681 9.6706 8.21041 
243 1 106.42 2.05 7.60735 9.83067 
248 1 106.42 4.01953 9.33978 10.1233 
244 1 106.42 -0.0957745 9.86686 9.85594 
361 1 106.42 -0.415609 11.8674 11.7646 
246 1 106.42 5.67633 9.78743 7.85608 
269 1 106.42 7.6732 11.4421 8.09686 
249 1 106.42 7.82892 7.97205 7.93572 
267 1 106.42 5.95001 11.6525 9.87419 
252 1 106.42 7.49504 9.6351 9.89223 
365 1 106.42 4.11326 11.9875 11.9441 
251 1 106.42 9.58371 8.02626 9.87693 
253 1 106.42 11.6774 8.04005 8.03989 
250 1 106.42 9.78809 9.87605 8.01318 
256 1 106.42 11.7251 9.99673 10.059 
350 1 106.42 9.94192 9.86331 12.0285 
254 1 106.42 13.7443 9.67938 7.97996 
354 1 106.42 13.405 9.8447 11.9869 
277 1 106.42 15.6847 12.0485 7.6844 
275 1 106.42 13.8518 11.6415 10.0872 
353 1 106.42 11.7719 7.74687 11.6771 
259 1 106.42 17.859 7.79407 9.6291 
257 1 106.42 15.6915 7.70662 7.58911 
260 1 106.42 15.7653 9.67065 9.60422 
358 1 106.42 17.8083 9.5169 11.8742 
285 1 106.42 4.0241 15.8007 7.48097 
263 1 106.42 1.78374 11.8757 9.60149 
268 1 106.42 3.9364 13.7392 9.55376 
264 1 106.42 0.0829291 13.6376 9.89934 
266 1 106.42 5.81872 13.6201 7.52363 
287 1 106.42 6.04039 15.851 9.63761 
366 1 106.42 5.82792 13.9289 11.7991 
270 1 106.42 9.8276 13.7505 7.94302 
271 1 106.42 9.49622 11.6974 10.0672 
272 1 106.42 7.52301 13.6095 9.67134 
370 1 106.42 9.68061 13.7652 11.8221 
276 1 106.42 11.6187 13.6877 10.0433 
393 1 106.42 11.6742 15.7764 11.3289 
274 1 106.42 13.7189 13.6795 8.04586 
293 1 106.42 11.7826 15.5123 7.90594 
280 1 106.42 15.5746 13.8417 9.75352 
278 1 106.42 17.5597 13.926 7.84264 
279 1 106.42 17.6508 11.5811 9.67371 
378 1 106.42 17.4942 13.6974 11.4366 
205 1 106.42 3.6918 19.7219 7.74168 
283 1 106.42 2.21229 15.6724 9.55718 
288 1 106.42 3.93433 17.8288 9.82872 
284 1 106.42 0.179118 17.7445 9.75538 
385 1 106.42 4.0652 15.5737 11.5339 
389 1 106.42 7.76785 15.8523 11.6386 
207 1 106.42 5.96679 19.6791 9.50673 
386 1 106.42 5.85723 17.8575 11.9091 
291 1 106.42 9.55751 15.7891 9.69717 
309 1 106.42 7.91459 19.7549 11.8003 
292 1 106.42 7.90858 17.7948 10.0151 
211 1 106.42 10.1742 19.8354 9.45175 
390 1 106.42 9.95187 17.8052 11.9303 
295 1 106.42 13.7741 15.6053 9.54997 
296 1 106.42 11.939 17.6408 9.56812 
300 1 106.42 15.6407 17.7205 10.1425 
299 1 106.42 17.6859 15.8009 9.51962 
317 1 106.42 15.7763 19.5466 11.8676 
398 1 106.42 17.879 17.4804 11.562 
301 1 106.42 19.6679 19.5126 11.8483 
302 1 106.42 1.79598 1.97463 11.7406 
303 1 106.42 1.94892 0.0977922 13.6672 
405 1 106.42 3.79978 -0.0195672 15.5071 
308 1 106.42 4.05348 2.07019 13.8422 
323 1 106.42 1.85491 3.57866 14.1051 
307 1 106.42 5.97084 0.0432064 13.7487 
406 1 106.42 5.71674 1.96937 15.8019 
312 1 106.42 7.72139 1.9567 13.7566 
331 1 106.42 9.85404 3.77168 13.6593 
311 1 106.42 9.56435 0.0491888 13.8378 
314 1 106.42 13.8018 1.88433 12.094 
316 1 106.42 11.8334 1.79029 13.9551 
315 1 106.42 13.7724 -0.137575 13.9198 
335 1 106.42 13.8951 3.67708 14.1489 
313 1 106.42 11.7026 -0.0134345 11.543 
320 1 106.42 16.1279 1.86931 13.7732 
304 1 106.42 19.4309 1.88145 13.7785 
322 1 106.42 2.11568 5.77479 11.9209 
345 1 106.42 3.94182 7.74517 12.0896 
341 1 106.42 0.368061 7.79443 11.6977 
343 1 106.42 2.07673 8.1021 14.006 
328 1 106.42 3.67127 5.75808 13.9662 
324 1 106.42 0.147905 5.84123 13.7616 
325 1 106.42 3.76559 3.93998 12.3162 
326 1 106.42 5.95824 5.63007 11.7667 
327 1 106.42 6.13961 3.9589 13.8253 
347 1 106.42 5.93861 7.84333 13.7583 
332 1 106.42 8.04046 5.73123 13.4594 
349 1 106.42 7.84524 7.98682 11.8928 
336 1 106.42 11.7437 5.94873 13.5057 
433 1 106.42 11.9486 4.29944 15.8601 
430 1 106.42 9.63606 5.87946 15.7447 
333 1 106.42 12.1897 3.8022 11.8426 
340 1 106.42 15.8438 5.95461 13.4111 
434 1 106.42 14.0408 5.79543 15.914 
339 1 106.42 17.8574 4.05313 13.3588 
438 1 106.42 17.5109 6.1036 15.8485 
359 1 106.42 17.9212 7.58117 13.5501 
437 1 106.42 15.8795 3.91304 15.4023 
421 1 106.42 19.4356 3.69824 15.4726 
342 1 106.42 1.95951 10.0497 11.6556 
344 1 106.42 -0.105198 10.0227 13.6869 
363 1 106.42 1.94901 11.8527 13.6958 
348 1 106.42 3.9225 9.7987 13.7221 
369 1 106.42 7.92334 11.7589 11.6355 
346 1 106.42 5.85831 9.85471 12.0216 
445 1 106.42 4.20605 7.5846 15.8193 
469 1 106.42 7.79227 11.7105 15.649 
465 1 106.42 4.06209 11.6079 15.5298 
351 1 106.42 10.0871 8.03554 13.8518 
352 1 106.42 7.78167 9.68712 13.6161 
356 1 106.42 12.009 10.0229 13.9882 
373 1 106.42 11.8351 12.0655 12.0764 
355 1 106.42 13.5272 7.79642 13.6917 
377 1 106.42 15.865 11.5702 11.5922 
454 1 106.42 13.9873 9.80362 15.7325 
360 1 106.42 16.13 9.50612 13.5383 
357 1 106.42 15.4652 7.74556 11.698 
458 1 106.42 17.5582 9.64997 15.8157 
362 1 106.42 2.14562 13.6128 11.7091 
381 1 106.42 -0.0699862 15.5076 11.6959 
368 1 106.42 3.91038 13.8232 13.9476 
485 1 106.42 3.7495 15.8141 15.6683 
481 1 106.42 0.0937085 15.4767 15.6203 
367 1 106.42 6.00964 11.8312 13.6027 
372 1 106.42 8.01725 14.0377 13.6012 
387 1 106.42 5.77681 15.7228 13.7998 
466 1 106.42 5.98586 13.893 15.6481 
371 1 106.42 9.8899 11.6086 13.9146 
376 1 106.42 11.586 14.0237 13.6488 
493 1 106.42 11.8614 16.0585 15.6568 
374 1 106.42 13.8048 13.7561 11.6499 
397 1 106.42 15.4661 15.7364 11.5614 
375 1 106.42 14.0327 11.6408 13.8713 
473 1 106.42 11.7928 11.8895 15.887 
380 1 106.42 15.6538 13.8713 13.6595 
474 1 106.42 13.5003 13.8059 15.7262 
497 1 106.42 15.3897 15.7678 15.5987 
364 1 106.42 19.5263 13.4045 13.6449 
461 1 106.42 19.4646 11.6472 15.7443 
379 1 106.42 17.4091 11.756 13.8884 
478 1 106.42 17.7455 13.8064 15.8476 
382 1 106.42 2.07623 17.7424 11.6843 
383 1 106.42 1.67637 15.7542 13.4963 
388 1 106.42 3.73823 17.5548 13.7001 
489 1 106.42 7.69996 15.8152 15.5859 
392 1 106.42 7.69363 17.7603 13.623 
486 1 106.42 5.65339 17.6524 15.5564 
391 1 106.42 9.77535 15.8923 13.6568 
490 1 106.42 9.70177 17.6212 15.8108 
396 1 106.42 11.7569 18.0661 13.8072 
395 1 106.42 13.1707 15.9808 13.4231 
394 1 106.42 13.6669 17.6568 11.6254 
494 1 106.42 13.7445 17.7752 15.6764 
319 1 106.42 17.7247 19.425 13.6529 
400 1 106.42 15.6326 17.695 13.3889 
399 1 106.42 17.4663 15.3475 13.5536 
384 1 106.42 19.696 17.7245 14.0637 
498 1 106.42 17.4256 17.3925 15.4894 
2 1 106.42 2.01738 2.00782 19.3866 
402 1 106.42 2.00506 1.72073 15.914 
423 1 106.42 1.87944 3.96363 17.4685 
6 1 106.42 5.92578 1.71907 19.6774 
408 1 106.42 4.01438 1.80874 17.553 
429 1 106.42 7.9288 3.86656 15.7642 
409 1 106.42 7.98801 0.0349908 15.8072 
410 1 106.42 9.81665 2.02997 15.672 
412 1 106.42 7.90507 2.20749 17.7376 
431 1 106.42 9.81583 4.26711 17.4833 
411 1 106.42 9.90454 0.100361 17.7132 
14 1 106.42 13.5238 1.95741 19.8225 
414 1 106.42 13.9072 1.69215 15.9132 
416 1 106.42 11.8093 2.10776 17.5665 
435 1 106.42 13.8798 3.61705 17.7264 
401 1 106.42 19.3923 -0.0659891 15.7101 
418 1 106.42 17.6352 1.95256 15.9682 
404 1 106.42 19.531 2.05015 17.5974 
420 1 106.42 15.7551 1.69513 17.8884 
22 1 106.42 1.78425 5.87762 19.5826 
21 1 106.42 -0.100269 3.83726 19.4257 
425 1 106.42 4.03142 3.94982 15.7763 
441 1 106.42 -0.0127213 8.27919 15.4774 
422 1 106.42 1.94079 5.79192 15.7857 
428 1 106.42 3.81936 5.89747 17.7431 
26 1 106.42 5.78513 5.75279 19.6786 
427 1 106.42 5.92823 3.80188 17.6821 
426 1 106.42 6.25633 5.8484 15.7009 
432 1 106.42 7.70932 5.87713 17.8021 
436 1 106.42 11.657 5.97892 17.6224 
34 1 106.42 13.7381 5.82132 19.5544 
453 1 106.42 11.9834 7.59472 15.9013 
457 1 106.42 15.5052 7.83369 15.5661 
439 1 106.42 17.6937 3.92403 17.5475 
424 1 106.42 19.5609 5.78837 17.3148 
440 1 106.42 15.6189 5.92571 17.807 
442 1 106.42 2.12707 9.91293 15.7769 
42 1 106.42 2.00016 9.63079 19.7536 
443 1 106.42 1.83312 7.90926 17.635 
444 1 106.42 0.0712118 9.73997 17.7571 
448 1 106.42 3.86137 9.72863 17.8133 
45 1 106.42 4.07225 7.93542 19.3714 
446 1 106.42 5.81271 9.94299 15.7551 
447 1 106.42 6.03257 7.83504 17.7448 
452 1 106.42 7.69719 9.98349 17.8097 
50 1 106.42 9.59778 9.86472 19.6865 
449 1 106.42 8.08902 7.80356 15.4157 
451 1 106.42 9.59646 7.91705 17.7139 
450 1 106.42 9.69617 9.94781 15.7775 
471 1 106.42 9.61558 11.8588 17.6575 
54 1 106.42 13.5694 9.72458 19.6596 
455 1 106.42 13.6298 7.70109 17.9161 
456 1 106.42 11.6932 9.7349 17.567 
460 1 106.42 15.8086 9.83638 17.3649 
57 1 106.42 15.6566 7.73946 19.4911 
77 1 106.42 15.5408 11.9875 19.5969 
41 1 106.42 19.3542 7.73798 19.8298 
477 1 106.42 15.6193 12.2553 15.77 
459 1 106.42 17.873 7.84617 17.6067 
479 1 106.42 17.6323 11.9315 17.6462 
462 1 106.42 1.85421 13.4647 15.6295 
463 1 106.42 1.7318 11.754 17.8123 
483 1 106.42 2.33571 15.3496 17.9698 
69 1 106.42 7.48416 12.0729 19.5893 
467 1 106.42 5.85364 11.8213 17.5171 
468 1 106.42 4.11724 13.7232 17.3445 
66 1 106.42 5.70838 13.8595 19.5777 
470 1 106.42 9.33118 13.5747 15.694 
472 1 106.42 7.79592 14.0283 17.6406 
476 1 106.42 11.5858 13.7699 17.6503 
74 1 106.42 13.8471 13.6933 19.9505 
475 1 106.42 13.583 11.7452 17.8976 
480 1 106.42 15.4951 13.954 17.5741 
464 1 106.42 19.7073 13.896 17.7434 
78 1 106.42 17.6178 13.8468 19.6909 
82 1 106.42 1.91445 17.4011 19.2755 
482 1 106.42 1.98484 17.5886 15.7585 
403 1 106.42 1.98065 19.5435 17.6785 
488 1 106.42 4.0983 17.8033 17.7247 
89 1 106.42 8.1549 16.1002 19.9158 
85 1 106.42 4.15925 15.8733 19.5506 
407 1 106.42 6.02397 19.7628 17.2963 
487 1 106.42 6.15824 15.7495 17.9108 
86 1 106.42 5.74275 17.9692 19.4191 
492 1 106.42 8.01419 17.5668 17.5605 
90 1 106.42 10.1818 17.6125 19.5499 
413 1 106.42 11.7085 19.755 15.7378 
9 1 106.42 8.32235 19.6489 19.737 
491 1 106.42 10.1215 15.59 17.5683 
415 1 106.42 13.8821 19.5251 17.7426 
496 1 106.42 11.7511 17.6844 17.696 
495 1 106.42 13.6728 15.773 17.6655 
500 1 106.42 15.7086 17.4859 17.6305 
417 1 106.42 15.9214 19.5322 15.9026 
499 1 106.42 17.8007 15.6161 17.6039 
97 1 106.42 15.6913 15.6438 19.6423 
419 1 106.42 17.865 19.7089 17.8141 
484 1 106.42 19.5457 17.3906 17.5916 
