ITEM: TIMESTEP
67300
ITEM: NUMBER OF ATOMS
501
ITEM: BOX BOUNDS pp pp pp
0.0000000000000000e+00 1.9629018200000001e+01
0.0000000000000000e+00 1.9629018200000001e+01
0.0000000000000000e+00 1.9629018200000001e+01
ITEM: ATOMS id type mass x y z 
23 1 106.42 1.90843 3.74712 1.81796 
8 1 106.42 3.71196 1.94137 2.02467 
25 1 106.42 3.86568 3.60074 -0.0105124 
4 1 106.42 0.305782 1.69268 2.18432 
27 1 106.42 5.72926 3.78522 2.0978 
7 1 106.42 6.06893 0.0929837 2.09457 
5 1 106.42 4.07021 -0.0200743 0.378774 
12 1 106.42 7.80125 1.98504 2.0334 
6 1 106.42 6.0784 1.96313 0.2026 
16 1 106.42 11.6854 1.68448 1.82911 
35 1 106.42 13.8658 3.88261 1.82039 
15 1 106.42 13.9207 0.0934365 1.86432 
137 1 106.42 15.5813 3.91661 3.86751 
33 1 106.42 11.8569 3.68783 -0.0634419 
20 1 106.42 15.7056 1.94055 1.92305 
39 1 106.42 17.7741 3.92119 1.86007 
1 1 106.42 19.452 -0.0263666 -0.0166569 
118 1 106.42 17.6251 1.80383 3.58825 
43 1 106.42 2.09183 7.79595 1.85696 
122 1 106.42 1.79848 5.7638 3.76609 
22 1 106.42 2.0129 5.95916 0.11796 
28 1 106.42 4.0411 5.91101 2.02055 
129 1 106.42 7.74021 4.07176 3.8456 
32 1 106.42 7.70287 6.25162 1.75235 
29 1 106.42 7.78782 3.84363 0.218933 
26 1 106.42 5.6649 5.75946 0.115904 
501 2 1.01 6.91591 7.05063 0.600939 
31 1 106.42 9.83823 4.08547 1.69593 
130 1 106.42 9.48702 5.94184 3.67398 
51 1 106.42 10.0178 7.82931 1.77785 
153 1 106.42 11.7489 7.75183 3.94352 
133 1 106.42 11.8511 3.93501 3.77131 
36 1 106.42 11.7404 5.98843 2.22771 
40 1 106.42 15.6124 5.84123 1.76753 
57 1 106.42 15.5943 7.69488 -0.00620154 
134 1 106.42 13.7349 5.8046 3.87055 
34 1 106.42 13.6716 5.92621 0.0573438 
24 1 106.42 19.5875 5.66139 1.9512 
59 1 106.42 17.3738 7.80628 1.84412 
38 1 106.42 17.8888 5.97703 -0.139481 
141 1 106.42 19.6018 7.7398 3.53045 
138 1 106.42 17.6041 5.74298 3.75265 
42 1 106.42 2.03698 9.99917 -0.0717757 
48 1 106.42 3.92675 9.61364 2.15713 
44 1 106.42 0.225797 9.66001 2.04613 
63 1 106.42 1.86862 11.6806 2.04815 
47 1 106.42 5.98583 8.01096 1.86277 
146 1 106.42 5.82414 9.98404 3.78837 
169 1 106.42 7.82057 11.7233 3.68296 
46 1 106.42 5.86056 10.0331 0.134341 
149 1 106.42 8.03894 8.06366 3.6752 
52 1 106.42 7.91624 9.64698 1.68164 
71 1 106.42 9.78489 11.8412 2.15041 
150 1 106.42 9.85345 9.88576 3.95222 
50 1 106.42 10.1093 9.8305 0.131591 
56 1 106.42 11.8625 9.90853 1.8353 
55 1 106.42 13.5431 8.0039 1.92656 
60 1 106.42 15.5637 9.79305 1.95611 
77 1 106.42 15.6653 11.5228 0.175961 
75 1 106.42 13.6661 11.7648 1.84739 
54 1 106.42 13.7952 9.68463 0.016528 
157 1 106.42 15.7889 7.92175 3.90667 
177 1 106.42 15.9842 11.6154 3.89508 
158 1 106.42 17.9081 9.77584 3.67656 
58 1 106.42 17.8101 9.70753 0.193243 
68 1 106.42 3.41616 13.7736 1.87935 
64 1 106.42 -0.0398414 13.9778 2.20254 
165 1 106.42 3.78228 11.8957 3.69856 
161 1 106.42 0.110447 11.7226 3.70669 
67 1 106.42 5.87456 11.8236 1.92323 
66 1 106.42 5.78875 13.7464 0.0594288 
87 1 106.42 5.61007 15.6809 2.14127 
72 1 106.42 7.77865 13.8108 2.08688 
70 1 106.42 9.71163 14.0593 0.38781 
73 1 106.42 11.7156 12.1076 -0.0343609 
76 1 106.42 11.8335 13.879 1.94197 
74 1 106.42 14.0118 13.4579 0.0970984 
80 1 106.42 15.667 13.4332 2.09245 
174 1 106.42 13.7897 13.5189 3.81306 
79 1 106.42 17.7732 11.8823 2.02572 
99 1 106.42 17.4755 15.5917 2.26978 
78 1 106.42 17.6117 13.6196 0.0725884 
81 1 106.42 19.3514 15.628 0.405477 
3 1 106.42 1.90597 19.3031 1.96403 
83 1 106.42 1.74508 15.773 2.25409 
85 1 106.42 3.72059 15.6859 0.0503934 
101 1 106.42 -0.0728689 19.5218 3.93177 
82 1 106.42 1.81084 17.627 0.124887 
89 1 106.42 7.4807 15.8351 -0.0463831 
9 1 106.42 7.82696 19.5288 0.201536 
88 1 106.42 3.99466 17.6817 2.23002 
92 1 106.42 7.52265 17.2905 2.06022 
11 1 106.42 9.62468 19.5564 1.81298 
91 1 106.42 9.75443 15.7925 2.17669 
96 1 106.42 11.5966 17.9153 1.96379 
190 1 106.42 9.58753 17.7326 3.7216 
193 1 106.42 11.6068 15.8089 3.69193 
95 1 106.42 13.5611 15.8916 2.2374 
100 1 106.42 15.7474 17.577 1.92228 
13 1 106.42 11.7838 19.524 -0.130289 
19 1 106.42 17.5298 19.6735 1.70899 
84 1 106.42 19.2736 17.7869 2.1733 
98 1 106.42 17.3225 17.654 0.15977 
121 1 106.42 0.139414 3.73312 3.95549 
102 1 106.42 2.08301 1.91346 4.2087 
202 1 106.42 1.76209 1.84667 7.89895 
225 1 106.42 3.98781 3.84986 7.64811 
123 1 106.42 1.82153 3.67761 5.98676 
105 1 106.42 4.15115 0.0189499 4.12343 
108 1 106.42 3.95443 1.98726 6.11007 
106 1 106.42 5.73253 2.10638 3.82773 
206 1 106.42 5.84545 2.07252 7.91014 
112 1 106.42 7.57865 2.23052 5.64852 
107 1 106.42 5.96483 0.0801171 6.29373 
110 1 106.42 9.9733 1.93024 4.02272 
210 1 106.42 9.46967 2.03026 7.86321 
111 1 106.42 9.7433 -0.00613404 5.91749 
213 1 106.42 11.7249 0.127156 7.89146 
209 1 106.42 8.01892 0.0837306 7.64847 
114 1 106.42 13.9697 2.21467 4.12114 
113 1 106.42 11.8224 0.0241858 4.01284 
116 1 106.42 11.783 1.96759 5.92206 
120 1 106.42 15.6865 1.95562 6.29136 
104 1 106.42 19.3381 1.87893 5.79214 
139 1 106.42 17.4181 3.84403 5.6125 
237 1 106.42 15.8489 3.88697 7.8701 
119 1 106.42 17.5403 0.0875438 6.0183 
218 1 106.42 17.801 1.8814 7.8203 
145 1 106.42 3.99092 7.79235 3.98955 
143 1 106.42 1.74334 7.75628 5.9057 
128 1 106.42 3.88092 5.90568 6.03785 
222 1 106.42 1.81505 6.05085 7.50639 
126 1 106.42 6.1035 6.04387 3.99672 
125 1 106.42 4.12804 4.13634 4.27094 
127 1 106.42 6.06726 4.33484 5.89093 
132 1 106.42 8.00356 6.08251 6.00749 
131 1 106.42 9.75563 4.05864 5.51275 
136 1 106.42 11.6159 6.0715 5.61652 
230 1 106.42 9.68152 5.85407 7.87881 
233 1 106.42 11.7327 4.20281 7.81708 
135 1 106.42 13.7616 4.0251 5.82561 
253 1 106.42 11.9092 7.68495 7.42442 
234 1 106.42 13.889 6.00435 7.62887 
124 1 106.42 19.2562 5.608 5.91534 
241 1 106.42 19.4728 7.90903 7.7135 
140 1 106.42 15.7859 5.76386 5.79575 
159 1 106.42 17.6645 7.72026 5.86756 
238 1 106.42 17.5758 5.69006 7.7516 
142 1 106.42 2.13799 9.74303 4.28631 
242 1 106.42 1.97488 9.7731 7.62078 
148 1 106.42 4.21386 9.84942 5.84372 
147 1 106.42 5.98851 7.88692 5.68453 
152 1 106.42 7.71984 9.72032 5.76267 
167 1 106.42 5.99719 11.6331 5.9638 
245 1 106.42 3.89807 7.92313 7.56079 
246 1 106.42 5.99192 10.0402 7.80394 
151 1 106.42 9.68471 8.07701 5.8194 
156 1 106.42 11.7782 9.94001 5.66048 
250 1 106.42 9.73138 9.76942 7.5976 
171 1 106.42 9.68236 11.6839 5.70673 
154 1 106.42 13.7004 10.0498 3.94566 
155 1 106.42 13.7367 7.8841 5.57263 
160 1 106.42 15.6438 10.0272 5.92126 
254 1 106.42 13.8973 9.74875 7.73924 
175 1 106.42 13.6892 11.5836 6.00294 
144 1 106.42 19.4107 9.69512 5.91008 
261 1 106.42 19.4317 11.6969 7.90669 
179 1 106.42 17.7028 11.5942 5.81512 
185 1 106.42 4.01642 15.6999 4.34053 
162 1 106.42 1.82665 13.9034 4.14443 
163 1 106.42 2.15685 11.8481 5.92496 
183 1 106.42 1.97657 15.7735 6.05975 
262 1 106.42 2.04173 13.8082 7.85433 
166 1 106.42 5.60112 13.5406 4.10689 
168 1 106.42 4.07987 13.7022 6.19235 
187 1 106.42 5.9429 15.5329 5.92495 
172 1 106.42 7.76301 13.8266 5.92104 
189 1 106.42 7.75662 15.4204 3.99514 
170 1 106.42 9.71199 13.866 4.20153 
176 1 106.42 11.7889 13.9883 5.70952 
273 1 106.42 11.6196 12.0329 7.57781 
269 1 106.42 7.86982 11.8778 7.57534 
270 1 106.42 9.82798 13.8971 7.52771 
173 1 106.42 11.9581 11.9629 4.07941 
274 1 106.42 13.6295 13.7114 7.77409 
197 1 106.42 15.5381 15.7396 4.14287 
195 1 106.42 13.7541 15.5868 5.88407 
180 1 106.42 15.7491 13.5058 5.99903 
164 1 106.42 19.5727 13.487 5.90776 
178 1 106.42 17.6987 13.6943 4.10929 
199 1 106.42 17.4931 15.5834 6.0091 
281 1 106.42 19.4757 15.4626 7.6221 
182 1 106.42 2.04745 17.6664 4.17944 
103 1 106.42 1.92772 19.5173 6.06596 
188 1 106.42 3.83433 17.8102 5.99508 
184 1 106.42 0.098529 17.8146 6.12795 
186 1 106.42 6.05321 17.6919 4.12818 
192 1 106.42 7.71728 17.5679 6.17283 
191 1 106.42 9.86538 15.9904 5.85031 
109 1 106.42 7.83289 19.6375 3.90785 
196 1 106.42 11.5761 17.6412 6.07269 
117 1 106.42 15.6555 19.6124 4.14988 
115 1 106.42 13.6801 19.5925 6.0617 
194 1 106.42 13.664 17.7813 4.22587 
200 1 106.42 15.7137 17.7387 6.14263 
294 1 106.42 13.77 17.8348 7.91942 
181 1 106.42 19.4172 15.8383 4.28909 
198 1 106.42 17.4523 17.7639 4.1739 
201 1 106.42 19.4716 19.6329 7.76501 
298 1 106.42 17.6695 17.6763 7.81805 
221 1 106.42 0.197189 3.75254 7.99836 
203 1 106.42 2.01728 0.0495829 9.96027 
302 1 106.42 1.97995 1.9961 11.5317 
208 1 106.42 4.088 2.00986 9.82865 
207 1 106.42 6.29769 0.266481 9.40615 
212 1 106.42 7.95321 1.96449 9.82822 
211 1 106.42 10.0081 -0.00623241 9.97962 
216 1 106.42 11.5929 2.18803 9.95938 
309 1 106.42 8.12184 0.222483 11.6772 
214 1 106.42 13.4783 2.25117 8.10429 
215 1 106.42 13.6167 0.128633 9.92243 
314 1 106.42 13.8415 2.07101 11.7514 
217 1 106.42 15.4174 0.144507 8.11562 
313 1 106.42 11.8507 0.162225 11.723 
204 1 106.42 19.5103 1.98006 9.8884 
220 1 106.42 15.851 2.09745 9.93149 
239 1 106.42 17.6778 3.866 9.82194 
223 1 106.42 2.1663 3.94687 9.67963 
322 1 106.42 2.15047 5.94158 11.4767 
228 1 106.42 3.92703 6.12196 9.75934 
229 1 106.42 7.70935 4.12275 7.96048 
227 1 106.42 5.6935 4.02238 9.66803 
226 1 106.42 5.78577 6.23711 7.96044 
232 1 106.42 7.66284 5.87272 9.79631 
326 1 106.42 5.69166 6.04253 11.7006 
231 1 106.42 9.81438 4.16726 10.0114 
236 1 106.42 11.8151 5.91577 9.6919 
235 1 106.42 13.8689 4.14211 9.76723 
255 1 106.42 13.6356 7.75339 9.6427 
333 1 106.42 11.849 4.24829 11.6918 
224 1 106.42 19.4237 6.05912 9.82584 
240 1 106.42 15.92 6.05008 9.87743 
243 1 106.42 2.05013 8.03903 9.37786 
342 1 106.42 2.01232 9.78886 11.5275 
361 1 106.42 0.058945 11.7201 11.6343 
263 1 106.42 1.83975 11.5779 9.5778 
345 1 106.42 3.7818 8.16862 11.809 
249 1 106.42 7.74303 7.90867 7.96987 
248 1 106.42 4.00751 9.70436 9.76523 
247 1 106.42 5.83654 7.99591 9.74822 
365 1 106.42 3.89503 11.6048 11.7552 
252 1 106.42 7.69861 9.94593 9.63682 
346 1 106.42 6.08456 9.82135 11.536 
251 1 106.42 9.7965 7.85644 9.62661 
256 1 106.42 11.5881 9.82903 9.41504 
373 1 106.42 11.5 11.7208 11.5149 
353 1 106.42 11.6359 7.92525 11.3956 
354 1 106.42 13.6857 9.82027 11.6057 
275 1 106.42 13.576 11.5499 9.58862 
258 1 106.42 17.2475 9.95374 7.92248 
257 1 106.42 15.7332 8.04703 7.90154 
259 1 106.42 17.7311 7.95291 9.81546 
244 1 106.42 19.4309 9.71803 9.75938 
260 1 106.42 15.6117 9.97089 9.96649 
279 1 106.42 17.6835 11.6334 9.80052 
264 1 106.42 0.283457 13.5771 9.95466 
265 1 106.42 4.06833 11.9922 8.17332 
267 1 106.42 6.06596 11.9687 9.79316 
268 1 106.42 3.89405 13.5163 9.97689 
266 1 106.42 5.89841 13.8384 8.08232 
287 1 106.42 5.87414 15.6166 10.0702 
289 1 106.42 7.64201 15.6989 7.92686 
272 1 106.42 8.05849 13.8665 10.0095 
271 1 106.42 9.61788 11.7714 9.53597 
369 1 106.42 8.14067 11.9266 11.5373 
277 1 106.42 15.5562 11.8298 7.98375 
276 1 106.42 11.8296 13.7432 9.77168 
280 1 106.42 15.5727 13.7189 9.70205 
295 1 106.42 13.7878 15.4497 9.70167 
393 1 106.42 11.9218 15.6914 11.7445 
278 1 106.42 17.4861 13.5227 7.86737 
299 1 106.42 17.7855 15.6686 9.69313 
377 1 106.42 15.8536 11.9128 11.4101 
282 1 106.42 2.09505 17.7583 8.14836 
283 1 106.42 2.06203 15.7237 10.1166 
205 1 106.42 3.83082 19.5276 7.90839 
284 1 106.42 0.206494 17.714 9.78922 
305 1 106.42 4.37381 19.3929 11.7723 
285 1 106.42 3.93879 15.9462 8.01275 
286 1 106.42 5.84863 17.7 8.28725 
288 1 106.42 4.04055 17.4946 10.0837 
291 1 106.42 9.84184 15.8433 9.70409 
292 1 106.42 8.00722 17.6885 10.1069 
290 1 106.42 9.71478 17.7893 7.82107 
297 1 106.42 15.6171 15.7055 7.87366 
293 1 106.42 11.909 15.8811 7.88409 
296 1 106.42 12.0479 17.4234 9.87305 
219 1 106.42 17.794 19.5123 9.90612 
300 1 106.42 15.6772 17.5351 9.82917 
317 1 106.42 15.7549 19.4813 11.592 
398 1 106.42 17.6851 17.4468 11.6629 
304 1 106.42 0.06135 2.04407 13.8971 
303 1 106.42 2.38908 0.0116045 13.6042 
425 1 106.42 3.77788 3.80666 15.65 
421 1 106.42 0.0102934 3.93314 15.674 
306 1 106.42 5.90707 2.03269 11.7633 
308 1 106.42 4.02562 2.11166 13.8097 
406 1 106.42 5.82127 1.7252 15.7748 
312 1 106.42 7.73005 1.95468 13.763 
310 1 106.42 9.80252 2.25464 11.9768 
311 1 106.42 9.76205 0.176265 13.5159 
410 1 106.42 10.3996 1.85888 15.555 
316 1 106.42 11.8766 2.06223 13.7134 
315 1 106.42 13.7996 0.103762 13.7506 
437 1 106.42 15.5865 3.67188 15.56 
433 1 106.42 11.8781 3.92269 15.5283 
318 1 106.42 17.8276 2.04846 11.8893 
320 1 106.42 15.8459 2.06979 13.7632 
319 1 106.42 17.5144 0.104379 13.9485 
323 1 106.42 1.99644 4.14469 13.5644 
324 1 106.42 0.088071 5.92579 13.6535 
343 1 106.42 2.15956 7.70136 13.6885 
422 1 106.42 2.15818 5.66887 15.5895 
325 1 106.42 4.12033 4.24146 11.8763 
327 1 106.42 6.11727 4.19327 13.6488 
328 1 106.42 3.98983 5.85893 13.7935 
332 1 106.42 7.90421 5.90085 13.8637 
329 1 106.42 7.71673 4.04716 11.6815 
330 1 106.42 9.61889 5.90649 11.8484 
331 1 106.42 9.79671 4.03714 13.8964 
336 1 106.42 11.7484 5.85214 13.7553 
351 1 106.42 9.69058 7.81637 13.8506 
334 1 106.42 13.7697 6.06003 11.8021 
335 1 106.42 13.779 3.8976 13.721 
434 1 106.42 13.7514 5.90989 15.599 
357 1 106.42 15.5235 7.78413 11.7211 
321 1 106.42 19.6484 4.07505 11.8118 
337 1 106.42 15.7331 3.91019 11.9721 
341 1 106.42 19.6942 7.56634 11.7866 
339 1 106.42 17.7985 3.99793 13.6599 
338 1 106.42 17.6128 5.92101 11.6745 
340 1 106.42 15.7471 5.98882 13.7913 
359 1 106.42 17.5997 7.73147 13.6509 
438 1 106.42 17.5766 5.9374 15.6805 
363 1 106.42 1.94951 11.6905 13.5359 
445 1 106.42 3.70931 7.87924 15.5595 
442 1 106.42 1.85334 9.81631 15.4246 
344 1 106.42 0.186939 9.70511 13.7059 
465 1 106.42 3.77905 11.6111 15.5467 
348 1 106.42 4.31643 9.69864 13.7615 
347 1 106.42 5.98595 7.83101 13.6038 
352 1 106.42 7.78404 9.58966 13.7697 
349 1 106.42 7.96769 8.03979 11.888 
350 1 106.42 9.83982 9.94351 11.7353 
450 1 106.42 9.91122 10.0278 15.5902 
453 1 106.42 11.9527 8.00076 15.6054 
356 1 106.42 11.8504 9.81074 13.4928 
355 1 106.42 13.524 7.74537 13.4054 
454 1 106.42 13.8619 9.88826 15.523 
358 1 106.42 17.8637 9.66919 11.8043 
360 1 106.42 16.0116 9.97984 13.6441 
379 1 106.42 18.0568 11.7181 13.8348 
362 1 106.42 1.92175 13.6955 11.8621 
368 1 106.42 3.99108 13.7737 13.9626 
364 1 106.42 0.0292475 14.1189 13.9503 
385 1 106.42 3.91168 15.5725 11.9685 
367 1 106.42 5.79914 12.0225 13.7498 
485 1 106.42 3.9647 15.5938 15.7177 
366 1 106.42 5.75477 13.9258 11.8759 
387 1 106.42 5.96753 15.5907 13.9254 
370 1 106.42 10.1003 13.9001 11.855 
372 1 106.42 7.94248 13.7382 13.6679 
371 1 106.42 9.69765 11.7689 13.7041 
376 1 106.42 11.8604 13.653 13.6149 
470 1 106.42 9.63746 13.7681 15.5284 
493 1 106.42 11.6965 15.4108 15.5805 
374 1 106.42 13.562 13.862 11.7617 
473 1 106.42 11.9482 12.1909 15.4472 
375 1 106.42 13.6962 11.7969 13.2652 
395 1 106.42 13.7891 15.4716 13.7828 
378 1 106.42 17.8029 13.5528 11.8428 
381 1 106.42 19.5375 15.528 11.9242 
380 1 106.42 15.7593 13.6161 13.8971 
399 1 106.42 17.6472 15.6774 13.7001 
478 1 106.42 17.525 13.6663 15.7467 
397 1 106.42 15.7862 15.6128 11.8917 
383 1 106.42 1.99811 16.0261 13.6803 
382 1 106.42 1.86453 17.7637 12.0306 
301 1 106.42 0.178184 19.5343 11.9915 
386 1 106.42 6.17759 17.572 11.989 
388 1 106.42 4.14261 17.8257 13.8229 
307 1 106.42 6.32258 19.5447 13.547 
392 1 106.42 7.63628 17.2475 14.0218 
390 1 106.42 10.1707 17.4012 12.0322 
391 1 106.42 9.73797 15.7768 13.863 
389 1 106.42 8.05482 15.7366 11.9005 
394 1 106.42 13.8271 17.4512 11.9363 
396 1 106.42 11.9663 17.4404 13.8163 
413 1 106.42 11.9109 19.4371 15.5445 
494 1 106.42 13.9619 17.6572 15.5374 
384 1 106.42 19.4369 17.6188 13.6056 
400 1 106.42 15.9358 17.8076 13.6203 
402 1 106.42 2.14699 1.50995 15.8237 
2 1 106.42 2.16685 1.74778 19.5146 
404 1 106.42 0.0482943 1.88141 17.4183 
423 1 106.42 1.89761 3.43319 17.647 
21 1 106.42 0.181111 3.29232 19.5849 
429 1 106.42 7.88184 3.49819 16.0336 
408 1 106.42 4.29851 1.74555 17.8176 
407 1 106.42 5.99201 0.0625211 17.6295 
10 1 106.42 9.79739 1.83293 19.5782 
409 1 106.42 8.12319 0.224024 15.7477 
412 1 106.42 8.01276 1.96457 17.8454 
431 1 106.42 9.98279 3.69906 17.3787 
414 1 106.42 13.6152 1.82703 15.8147 
14 1 106.42 13.5953 1.75274 19.6052 
416 1 106.42 11.9511 1.80845 17.6872 
420 1 106.42 15.6845 2.0749 17.6796 
417 1 106.42 15.7928 0.250082 15.8258 
418 1 106.42 17.7934 1.96295 15.7907 
18 1 106.42 17.6111 2.04692 19.5762 
419 1 106.42 17.8126 0.103548 17.7326 
443 1 106.42 1.94208 7.7076 17.3038 
428 1 106.42 3.71469 5.67093 17.7271 
424 1 106.42 0.194539 5.49028 17.649 
441 1 106.42 0.068103 7.69786 15.995 
427 1 106.42 5.62005 3.97304 17.7466 
426 1 106.42 5.5038 5.95942 15.8764 
432 1 106.42 7.48203 5.75943 17.6649 
430 1 106.42 9.43627 5.94141 15.8238 
30 1 106.42 9.59494 5.7377 19.3712 
436 1 106.42 11.5048 5.75213 17.3944 
53 1 106.42 11.5536 7.76665 19.378 
457 1 106.42 15.61 7.79467 15.7744 
435 1 106.42 13.9509 4.24548 17.4647 
440 1 106.42 15.5177 5.99057 17.8063 
455 1 106.42 13.5348 7.74748 17.5509 
37 1 106.42 15.8017 3.97715 19.6962 
439 1 106.42 17.4761 4.14652 17.592 
65 1 106.42 3.79663 11.8022 19.3085 
41 1 106.42 0.218864 7.81492 19.4378 
448 1 106.42 3.69906 9.86783 17.5439 
444 1 106.42 0.118874 9.84363 17.7025 
45 1 106.42 3.85656 7.94102 19.3922 
447 1 106.42 5.62984 7.97319 17.5115 
449 1 106.42 7.65484 7.85964 15.9144 
446 1 106.42 5.61211 10.0911 15.6923 
452 1 106.42 7.7208 9.83376 17.4758 
49 1 106.42 7.99322 7.85828 19.2094 
451 1 106.42 9.95622 7.94948 17.278 
456 1 106.42 11.6624 9.92476 17.4993 
460 1 106.42 15.6458 9.57535 17.4562 
458 1 106.42 17.6899 9.66316 15.7028 
477 1 106.42 15.731 11.3675 15.6953 
61 1 106.42 19.5348 11.8166 19.6351 
459 1 106.42 17.7661 7.93843 17.7829 
479 1 106.42 17.5613 11.5677 17.7078 
461 1 106.42 0.186415 11.7656 15.8006 
463 1 106.42 1.98254 11.8785 17.5307 
62 1 106.42 1.90597 13.8117 19.6 
462 1 106.42 1.90523 13.7721 15.6005 
483 1 106.42 1.84964 15.7348 17.6714 
469 1 106.42 7.72251 11.7814 15.7458 
468 1 106.42 4.01298 13.684 17.5681 
466 1 106.42 5.74327 13.601 15.7064 
467 1 106.42 6.07686 11.8537 17.7362 
487 1 106.42 5.76604 15.5782 17.7793 
489 1 106.42 7.63376 15.418 15.8361 
93 1 106.42 11.6308 15.7149 19.5845 
69 1 106.42 7.97595 11.984 19.5446 
471 1 106.42 10.2168 11.9912 17.548 
472 1 106.42 7.94135 13.6975 17.6851 
474 1 106.42 13.9392 13.8179 15.9861 
475 1 106.42 14.0636 11.754 17.908 
476 1 106.42 11.9199 13.873 17.6828 
495 1 106.42 13.9072 15.7602 17.602 
97 1 106.42 15.7571 15.4903 19.4885 
480 1 106.42 15.9355 13.6109 17.5272 
464 1 106.42 19.4622 13.776 17.6419 
482 1 106.42 1.90848 17.597 15.9065 
403 1 106.42 1.89379 19.3417 18.0315 
401 1 106.42 0.0318628 19.4233 15.6906 
405 1 106.42 3.74594 19.529 15.9733 
86 1 106.42 5.9942 17.6879 19.4565 
488 1 106.42 4.00888 17.6276 17.8198 
486 1 106.42 5.83279 17.7376 15.7938 
90 1 106.42 9.93806 17.6699 19.645 
490 1 106.42 9.81545 17.731 15.9029 
411 1 106.42 9.70929 19.5972 17.9281 
491 1 106.42 9.80934 15.6116 17.7102 
492 1 106.42 7.89416 17.6345 17.5086 
94 1 106.42 13.9689 17.3707 19.4951 
17 1 106.42 15.4669 19.6127 19.425 
415 1 106.42 13.8011 19.5942 17.6886 
496 1 106.42 11.9521 17.265 17.5128 
497 1 106.42 15.9401 15.7492 15.729 
481 1 106.42 19.5939 15.9127 15.8211 
499 1 106.42 17.6714 15.7572 17.6553 
500 1 106.42 15.9226 17.764 17.5229 
498 1 106.42 17.661 17.7074 15.8988 
484 1 106.42 19.3985 17.6745 17.948 
