ITEM: TIMESTEP
67700
ITEM: NUMBER OF ATOMS
501
ITEM: BOX BOUNDS pp pp pp
0.0000000000000000e+00 1.9629018200000001e+01
0.0000000000000000e+00 1.9629018200000001e+01
0.0000000000000000e+00 1.9629018200000001e+01
ITEM: ATOMS id type mass x y z 
23 1 106.42 2.0498 3.94431 1.89708 
8 1 106.42 3.74794 1.7862 1.92265 
25 1 106.42 3.80818 3.62177 -0.0998991 
4 1 106.42 0.499962 1.77321 2.15843 
27 1 106.42 5.74777 3.94756 2.02432 
7 1 106.42 6.05722 0.0878788 2.09482 
5 1 106.42 3.92391 -0.216302 0.222362 
12 1 106.42 7.98519 1.97097 2.05785 
6 1 106.42 6.12499 1.8626 0.291726 
16 1 106.42 11.7594 1.61964 1.97581 
35 1 106.42 13.8036 3.88308 1.91639 
15 1 106.42 13.8767 -0.0521349 2.03912 
137 1 106.42 15.5841 4.01489 3.90108 
33 1 106.42 11.9563 3.71731 -0.228428 
20 1 106.42 15.5387 1.92267 2.00153 
39 1 106.42 17.7437 3.86572 2.0205 
1 1 106.42 19.573 -0.102307 0.00912323 
118 1 106.42 17.6559 1.78754 3.70626 
43 1 106.42 2.19938 7.87147 1.89711 
122 1 106.42 1.83106 5.72375 3.78383 
22 1 106.42 2.01956 6.01078 0.192451 
28 1 106.42 3.93187 5.85741 2.06126 
129 1 106.42 7.82741 4.06301 3.71817 
32 1 106.42 7.75722 6.10512 1.88878 
29 1 106.42 7.71837 3.77928 0.34491 
26 1 106.42 5.6466 5.90953 0.0488018 
501 2 1.01 6.44739 7.39056 0.0311195 
31 1 106.42 9.78582 4.12071 1.78936 
130 1 106.42 9.59633 5.8174 3.81535 
51 1 106.42 9.90736 7.8559 1.70338 
153 1 106.42 11.8801 7.85066 3.97566 
133 1 106.42 11.7241 3.81748 3.81301 
36 1 106.42 11.7079 5.70948 2.06136 
40 1 106.42 15.7084 5.86079 1.77457 
57 1 106.42 15.5645 7.87 -0.0737517 
134 1 106.42 13.7769 5.77679 3.82939 
34 1 106.42 13.5791 5.7486 0.0354927 
24 1 106.42 19.6492 5.70531 1.95045 
59 1 106.42 17.3935 7.9331 1.85761 
38 1 106.42 17.9481 6.08389 -0.339139 
141 1 106.42 19.7034 7.70027 3.56928 
138 1 106.42 17.6512 5.72285 3.717 
42 1 106.42 2.09677 9.93904 -0.13656 
48 1 106.42 4.01648 9.613 2.17851 
44 1 106.42 0.328371 9.67529 2.0203 
63 1 106.42 1.80788 11.5928 1.96905 
47 1 106.42 5.92187 8.08373 1.82264 
146 1 106.42 5.81341 9.92955 3.70067 
169 1 106.42 7.81849 11.7085 3.57491 
46 1 106.42 5.7967 10.0651 -0.0527002 
149 1 106.42 8.17821 7.88287 3.70566 
52 1 106.42 7.87474 9.64141 1.75481 
71 1 106.42 9.96926 12.02 2.23559 
150 1 106.42 9.97119 9.86309 3.87586 
50 1 106.42 10.1453 10.0089 0.0778314 
56 1 106.42 11.8393 9.91873 1.91211 
55 1 106.42 13.6127 7.90958 2.08348 
60 1 106.42 15.6123 9.83325 1.9391 
77 1 106.42 15.8053 11.6197 0.071974 
75 1 106.42 13.6997 11.7584 1.92008 
54 1 106.42 13.6581 9.69463 -0.136834 
157 1 106.42 15.7044 8.00036 3.89617 
177 1 106.42 15.8838 11.6332 4.03785 
158 1 106.42 17.98 9.71457 3.78655 
58 1 106.42 17.8827 9.72267 0.00454114 
68 1 106.42 3.65353 13.9097 2.04276 
64 1 106.42 -0.218016 13.8326 2.19204 
165 1 106.42 3.96046 11.7989 3.82556 
161 1 106.42 0.141795 11.6333 3.71127 
67 1 106.42 5.67681 11.9466 2.03991 
66 1 106.42 5.76689 14.0124 0.0144505 
87 1 106.42 5.54118 15.7013 2.03917 
72 1 106.42 7.58984 13.8893 1.89601 
70 1 106.42 9.71637 14.0589 0.208766 
73 1 106.42 11.784 12.0559 -0.120281 
76 1 106.42 11.8516 13.7928 1.88123 
74 1 106.42 14.0597 13.6413 0.0905514 
80 1 106.42 15.6852 13.6243 2.04346 
174 1 106.42 13.8666 13.3968 3.76287 
79 1 106.42 17.739 11.7953 2.03218 
99 1 106.42 17.3685 15.5799 2.08155 
78 1 106.42 17.6366 13.6109 0.00885882 
81 1 106.42 19.306 15.6769 0.258775 
3 1 106.42 1.99359 19.3698 2.09898 
83 1 106.42 1.76209 15.6707 2.30497 
85 1 106.42 3.81382 15.6318 -0.127865 
101 1 106.42 -0.236982 19.4896 4.09207 
82 1 106.42 1.85441 17.617 0.261526 
89 1 106.42 7.59853 15.6693 -0.137431 
9 1 106.42 7.82866 19.5809 0.127809 
88 1 106.42 3.94224 17.6305 2.24825 
92 1 106.42 7.67456 17.3153 2.0037 
11 1 106.42 9.61018 19.598 1.95791 
91 1 106.42 9.74706 15.7025 2.11783 
96 1 106.42 11.5309 17.9222 1.92001 
190 1 106.42 9.47882 17.8697 3.77676 
193 1 106.42 11.5088 15.639 3.8032 
95 1 106.42 13.7382 15.8678 2.16771 
100 1 106.42 15.9818 17.7527 1.94173 
13 1 106.42 11.7405 19.5516 -0.362553 
19 1 106.42 17.4775 19.771 1.64384 
84 1 106.42 19.3576 17.8011 2.16177 
98 1 106.42 17.5292 17.6516 0.0368902 
121 1 106.42 0.0789926 3.75059 3.96732 
102 1 106.42 2.01292 1.72816 4.0611 
202 1 106.42 1.87949 1.90845 8.04749 
225 1 106.42 4.06066 3.87188 7.55386 
123 1 106.42 1.93062 3.74445 6.00117 
105 1 106.42 4.06005 -0.0522249 4.09864 
108 1 106.42 3.98123 2.0313 6.1541 
106 1 106.42 5.77077 2.03303 3.75627 
206 1 106.42 5.92538 2.06946 8.03055 
112 1 106.42 7.57826 2.21587 5.87789 
107 1 106.42 5.97863 -0.100402 6.27917 
110 1 106.42 9.79928 1.86697 3.90416 
210 1 106.42 9.47248 2.06503 7.87382 
111 1 106.42 9.79889 -0.0943529 5.78028 
213 1 106.42 11.7031 0.243329 8.02852 
209 1 106.42 7.97374 -0.0290565 7.62753 
114 1 106.42 13.8677 2.20013 4.13033 
113 1 106.42 11.8198 -0.00646663 3.68678 
116 1 106.42 11.698 1.91767 6.05015 
120 1 106.42 15.6079 2.01906 6.44241 
104 1 106.42 19.5017 1.89342 5.81234 
139 1 106.42 17.4024 3.66836 5.58394 
237 1 106.42 15.6213 3.99907 7.99714 
119 1 106.42 17.5811 0.0658308 5.92991 
218 1 106.42 17.8757 1.92088 7.97728 
145 1 106.42 4.04434 7.70053 4.01638 
143 1 106.42 1.62819 7.84184 5.88593 
128 1 106.42 3.92079 5.81855 5.96516 
222 1 106.42 1.66025 5.83163 7.56735 
126 1 106.42 6.08648 5.90694 3.89136 
125 1 106.42 4.17523 4.21916 4.1691 
127 1 106.42 6.16703 4.3119 6.01174 
132 1 106.42 8.03745 5.96296 5.98489 
131 1 106.42 9.71371 3.98631 5.53115 
136 1 106.42 11.6835 5.88272 5.71146 
230 1 106.42 9.68359 5.89971 7.94153 
233 1 106.42 11.7014 4.16066 7.97677 
135 1 106.42 13.6487 4.03996 5.98803 
253 1 106.42 11.9174 7.85824 7.53072 
234 1 106.42 13.8961 6.04824 7.72745 
124 1 106.42 19.3506 5.77734 5.85309 
241 1 106.42 19.5158 7.95713 7.82255 
140 1 106.42 15.6985 5.82344 5.84919 
159 1 106.42 17.5988 7.64994 5.69791 
238 1 106.42 17.6351 5.51525 7.79189 
142 1 106.42 1.98891 9.68145 4.23391 
242 1 106.42 1.96265 9.97061 7.7055 
148 1 106.42 4.25394 9.96102 5.74518 
147 1 106.42 5.93589 7.86479 5.88463 
152 1 106.42 7.72018 9.72001 5.70289 
167 1 106.42 5.90388 11.7636 5.86176 
245 1 106.42 3.69519 7.83505 7.42711 
246 1 106.42 5.82155 9.98029 7.9375 
151 1 106.42 9.78919 7.92463 5.85257 
156 1 106.42 11.7939 9.91118 5.76589 
250 1 106.42 9.72201 9.68581 7.52995 
171 1 106.42 9.65371 11.7755 5.55647 
154 1 106.42 13.6017 9.98002 3.88284 
155 1 106.42 13.8719 7.93275 5.54434 
160 1 106.42 15.6461 9.94902 5.86911 
254 1 106.42 13.8739 9.56175 7.7644 
175 1 106.42 13.6049 11.6837 6.11123 
144 1 106.42 19.5271 9.78364 5.85613 
261 1 106.42 19.4591 11.6274 7.9905 
179 1 106.42 17.8076 11.7794 5.8884 
185 1 106.42 4.24291 15.7148 4.35607 
162 1 106.42 1.9217 13.8086 4.17365 
163 1 106.42 2.08154 11.7597 6.0972 
183 1 106.42 1.98792 15.9907 5.88035 
262 1 106.42 1.90252 13.6613 7.99402 
166 1 106.42 5.69721 13.5788 4.05041 
168 1 106.42 4.06409 13.7632 6.16197 
187 1 106.42 5.84592 15.7238 6.01026 
172 1 106.42 7.75624 13.9599 5.86234 
189 1 106.42 7.80551 15.5692 3.88157 
170 1 106.42 9.53715 13.8818 4.24545 
176 1 106.42 11.8977 13.8564 5.6487 
273 1 106.42 11.5494 12.0351 7.69791 
269 1 106.42 7.91526 11.7782 7.70371 
270 1 106.42 9.8589 13.8128 7.51898 
173 1 106.42 11.9344 11.8594 3.98983 
274 1 106.42 13.5607 13.6618 7.65068 
197 1 106.42 15.4625 15.8603 4.02152 
195 1 106.42 13.7561 15.6185 5.89242 
180 1 106.42 15.7076 13.4907 5.91778 
164 1 106.42 19.5591 13.4714 5.8688 
178 1 106.42 17.6641 13.7929 4.0112 
199 1 106.42 17.4776 15.6486 5.97868 
281 1 106.42 19.669 15.5208 7.65195 
182 1 106.42 2.12858 17.6245 4.01957 
103 1 106.42 1.81709 19.6784 6.02413 
188 1 106.42 3.85544 17.8455 6.17325 
184 1 106.42 0.0972605 17.6633 6.15522 
186 1 106.42 5.97456 17.7575 4.28181 
192 1 106.42 7.75665 17.5035 6.1063 
191 1 106.42 9.86863 15.8342 5.77761 
109 1 106.42 7.7352 19.8119 3.88368 
196 1 106.42 11.8048 17.8663 5.90652 
117 1 106.42 15.7382 19.7311 4.08651 
115 1 106.42 13.5979 19.7564 5.9107 
194 1 106.42 13.6613 17.6363 4.19084 
200 1 106.42 15.8269 17.7547 6.1002 
294 1 106.42 13.7275 17.765 8.12034 
181 1 106.42 19.5933 15.7625 4.18848 
198 1 106.42 17.4896 17.7588 4.30007 
201 1 106.42 19.6305 19.6942 7.82658 
298 1 106.42 17.659 17.6912 7.85868 
221 1 106.42 0.0540701 3.67042 7.89393 
203 1 106.42 2.12691 0.0684956 9.91602 
302 1 106.42 1.88057 2.04795 11.6411 
208 1 106.42 4.13941 2.08368 9.85703 
207 1 106.42 6.25943 0.119343 9.60273 
212 1 106.42 7.9837 1.98953 9.80445 
211 1 106.42 10.0943 -0.0829974 9.98901 
216 1 106.42 11.58 2.14825 9.94215 
309 1 106.42 8.0935 0.351105 11.701 
214 1 106.42 13.3699 2.30203 8.038 
215 1 106.42 13.6364 0.11627 10.1276 
314 1 106.42 13.6007 2.11278 11.8414 
217 1 106.42 15.3864 0.193081 8.10092 
313 1 106.42 11.798 0.251129 11.8836 
204 1 106.42 19.5779 1.86155 9.71291 
220 1 106.42 15.7449 2.04811 10.0052 
239 1 106.42 17.6107 3.89608 9.8535 
223 1 106.42 2.07313 3.90015 9.71397 
322 1 106.42 2.01462 5.88582 11.5762 
228 1 106.42 3.98037 6.22665 9.74694 
229 1 106.42 7.68911 4.10923 8.00405 
227 1 106.42 5.658 4.05017 9.71243 
226 1 106.42 5.93623 6.32259 7.75692 
232 1 106.42 7.56365 5.88875 9.77058 
326 1 106.42 5.71868 5.97101 11.6145 
231 1 106.42 9.67966 4.16519 9.85789 
236 1 106.42 11.7419 6.06078 9.59502 
235 1 106.42 13.8613 4.20021 9.88149 
255 1 106.42 13.6456 7.86689 9.63616 
333 1 106.42 11.8505 4.08472 11.7539 
224 1 106.42 19.5186 5.94059 9.73583 
240 1 106.42 15.7052 6.06488 9.82582 
243 1 106.42 1.91291 7.95053 9.39931 
342 1 106.42 1.95673 9.87251 11.5245 
361 1 106.42 -0.0765296 11.7091 11.7259 
263 1 106.42 1.86554 11.6332 9.71005 
345 1 106.42 3.8085 8.09067 11.8378 
249 1 106.42 7.69826 8.00851 7.87552 
248 1 106.42 4.08252 9.95545 9.83845 
247 1 106.42 5.85666 7.9793 9.81067 
365 1 106.42 3.8441 11.6516 11.8527 
252 1 106.42 7.7487 9.96689 9.65539 
346 1 106.42 6.04481 9.8929 11.5824 
251 1 106.42 9.7264 7.80275 9.58987 
256 1 106.42 11.6242 9.8192 9.54247 
373 1 106.42 11.6154 11.7345 11.7165 
353 1 106.42 11.6137 7.94367 11.4926 
354 1 106.42 13.6202 9.86108 11.4879 
275 1 106.42 13.6585 11.7003 9.72376 
258 1 106.42 17.3446 9.9452 7.81436 
257 1 106.42 15.7475 7.83122 7.76115 
259 1 106.42 17.7417 7.83223 9.6545 
244 1 106.42 19.5626 9.72688 9.72531 
260 1 106.42 15.4631 9.9024 9.86251 
279 1 106.42 17.7336 11.7418 9.90705 
264 1 106.42 0.169409 13.623 10.1915 
265 1 106.42 3.97085 11.8756 8.1721 
267 1 106.42 6.18158 12.0249 9.78171 
268 1 106.42 3.79709 13.5674 10.105 
266 1 106.42 5.87904 13.7935 7.96456 
287 1 106.42 5.80411 15.693 10.1499 
289 1 106.42 7.77582 15.8264 7.81136 
272 1 106.42 8.13908 14.0013 9.89371 
271 1 106.42 9.78067 11.7369 9.64888 
369 1 106.42 8.12836 11.8119 11.4664 
277 1 106.42 15.702 11.8772 8.06654 
276 1 106.42 11.7141 13.6797 9.59583 
280 1 106.42 15.5643 13.6421 9.63646 
295 1 106.42 13.8855 15.682 9.7974 
393 1 106.42 11.882 15.7286 11.8884 
278 1 106.42 17.5977 13.6506 7.86476 
299 1 106.42 17.7628 15.656 9.85377 
377 1 106.42 15.7972 12.016 11.5204 
282 1 106.42 2.10204 17.5921 8.16254 
283 1 106.42 2.17309 15.6969 10.0211 
205 1 106.42 3.82315 19.6432 7.82305 
284 1 106.42 0.157709 17.7182 9.79331 
305 1 106.42 4.41707 19.4869 11.7774 
285 1 106.42 3.93515 15.868 7.96682 
286 1 106.42 5.68033 17.5733 8.32226 
288 1 106.42 3.91109 17.5417 10.1761 
291 1 106.42 9.7964 15.7106 9.59963 
292 1 106.42 7.92058 17.742 9.92128 
290 1 106.42 9.77284 17.8423 7.86935 
297 1 106.42 15.5281 15.6545 7.86784 
293 1 106.42 11.849 15.7474 7.7739 
296 1 106.42 12.0028 17.4278 9.76257 
219 1 106.42 17.6891 19.4546 9.87239 
300 1 106.42 15.6307 17.5137 9.90187 
317 1 106.42 15.7002 19.4023 11.5868 
398 1 106.42 17.6709 17.5343 11.8025 
304 1 106.42 0.138852 1.86688 13.964 
303 1 106.42 2.41578 0.047142 13.6239 
425 1 106.42 3.77768 3.6948 15.7126 
421 1 106.42 -0.057649 3.97627 15.7009 
306 1 106.42 5.88103 2.09488 11.6048 
308 1 106.42 3.94495 2.14865 13.6961 
406 1 106.42 5.91536 1.90386 15.8038 
312 1 106.42 7.75028 2.01527 13.8288 
310 1 106.42 9.74836 2.30205 11.8669 
311 1 106.42 9.62621 0.127991 13.6622 
410 1 106.42 10.2713 1.91539 15.5741 
316 1 106.42 11.8535 1.9717 13.6114 
315 1 106.42 13.8353 0.0640046 13.6832 
437 1 106.42 15.7286 3.92433 15.7285 
433 1 106.42 11.8995 4.0186 15.4829 
318 1 106.42 17.7422 2.10416 11.9675 
320 1 106.42 15.8316 2.02079 13.7308 
319 1 106.42 17.6074 0.145149 13.8097 
323 1 106.42 2.0181 4.07218 13.5489 
324 1 106.42 -0.083176 5.76336 13.6698 
343 1 106.42 2.09929 7.78386 13.6531 
422 1 106.42 2.1329 5.69484 15.6028 
325 1 106.42 4.00693 4.07118 11.6945 
327 1 106.42 6.21225 4.11293 13.7285 
328 1 106.42 4.00735 5.79326 13.8541 
332 1 106.42 7.98124 5.84581 13.7252 
329 1 106.42 7.61885 3.94865 11.4322 
330 1 106.42 9.6062 5.89962 11.7677 
331 1 106.42 9.86019 4.05524 13.9412 
336 1 106.42 11.755 5.82045 13.7266 
351 1 106.42 9.80834 8.03371 13.8029 
334 1 106.42 13.6498 5.95358 11.7146 
335 1 106.42 13.8316 3.80573 13.7813 
434 1 106.42 13.8034 6.06428 15.7352 
357 1 106.42 15.6583 7.89837 11.6342 
321 1 106.42 19.7228 4.04734 11.7029 
337 1 106.42 15.757 3.80551 11.981 
341 1 106.42 19.9586 7.51204 11.7978 
339 1 106.42 17.6161 4.09759 13.6126 
338 1 106.42 17.5492 5.83091 11.5259 
340 1 106.42 15.5951 6.02754 13.7553 
359 1 106.42 17.782 7.73941 13.6993 
438 1 106.42 17.607 5.97014 15.6769 
363 1 106.42 1.76713 11.8187 13.532 
445 1 106.42 3.91258 7.84287 15.7738 
442 1 106.42 2.00534 9.7115 15.4827 
344 1 106.42 0.120382 9.76662 13.7791 
465 1 106.42 3.79442 11.6637 15.5463 
348 1 106.42 4.41041 9.63198 13.5986 
347 1 106.42 5.9632 7.66869 13.5042 
352 1 106.42 7.88846 9.72694 13.8012 
349 1 106.42 7.96487 7.78045 11.8783 
350 1 106.42 9.93957 9.75129 11.6312 
450 1 106.42 9.87079 10.1161 15.6539 
453 1 106.42 12.0822 7.98739 15.6729 
356 1 106.42 11.9092 9.73362 13.6504 
355 1 106.42 13.3266 7.69403 13.4915 
454 1 106.42 13.8347 9.8141 15.5001 
358 1 106.42 17.9272 9.55934 11.8653 
360 1 106.42 15.9351 9.79655 13.7332 
379 1 106.42 17.9955 11.754 14.0217 
362 1 106.42 2.06084 13.7974 11.9123 
368 1 106.42 3.93535 13.9337 14.0235 
364 1 106.42 0.0188032 13.948 14.0008 
385 1 106.42 3.90908 15.5519 12.0936 
367 1 106.42 5.71521 11.9694 13.6467 
485 1 106.42 3.80402 15.7297 15.9668 
366 1 106.42 5.94338 13.6652 11.8471 
387 1 106.42 5.86156 15.4784 13.7625 
370 1 106.42 10.1567 13.9283 11.7863 
372 1 106.42 7.89817 13.7838 13.604 
371 1 106.42 9.90454 11.6216 13.6005 
376 1 106.42 11.954 13.7118 13.7615 
470 1 106.42 9.73903 13.7671 15.4508 
493 1 106.42 11.7953 15.3712 15.5532 
374 1 106.42 13.6435 13.747 11.5901 
473 1 106.42 12.0032 11.9071 15.6212 
375 1 106.42 13.8693 11.6954 13.3156 
395 1 106.42 13.8737 15.5743 13.9071 
378 1 106.42 17.8618 13.6333 11.8536 
381 1 106.42 19.73 15.5834 11.777 
380 1 106.42 15.738 13.5696 13.8045 
399 1 106.42 17.5137 15.6867 13.8681 
478 1 106.42 17.5678 13.7523 15.7584 
397 1 106.42 15.8108 15.5349 11.6905 
383 1 106.42 2.04279 16.058 13.8099 
382 1 106.42 1.90356 17.8049 11.9852 
301 1 106.42 0.0722243 19.6729 11.9208 
386 1 106.42 6.07736 17.5577 11.9133 
388 1 106.42 3.96888 17.841 13.7261 
307 1 106.42 6.24966 19.4619 13.6367 
392 1 106.42 7.59253 17.3801 14.1345 
390 1 106.42 10.1388 17.4838 11.9592 
391 1 106.42 9.68111 15.779 13.8707 
389 1 106.42 7.98068 15.6213 11.9716 
394 1 106.42 13.8567 17.3979 11.9249 
396 1 106.42 11.9133 17.514 13.9408 
413 1 106.42 11.7908 19.5147 15.6631 
494 1 106.42 13.9433 17.7268 15.523 
384 1 106.42 19.5051 17.6996 13.5043 
400 1 106.42 15.8485 17.852 13.5711 
402 1 106.42 2.01254 1.60958 15.7647 
2 1 106.42 2.03544 1.65141 19.7382 
404 1 106.42 -0.06583 1.78209 17.4862 
423 1 106.42 1.92114 3.6535 17.5469 
21 1 106.42 0.23726 3.35276 19.5702 
429 1 106.42 7.91365 3.63741 15.9111 
408 1 106.42 4.10635 1.84233 17.8703 
407 1 106.42 5.94656 0.0305784 17.7136 
10 1 106.42 9.81136 1.74536 19.5996 
409 1 106.42 8.17809 0.213011 15.7297 
412 1 106.42 7.96934 1.92185 17.9193 
431 1 106.42 9.94599 3.82661 17.3362 
414 1 106.42 13.7995 1.71825 15.7754 
14 1 106.42 13.5223 1.76822 19.6457 
416 1 106.42 11.8896 1.64036 17.607 
420 1 106.42 15.7255 1.95551 17.65 
417 1 106.42 15.8553 0.215902 15.8624 
418 1 106.42 17.8178 1.99445 15.7127 
18 1 106.42 17.8144 2.01286 19.6121 
419 1 106.42 17.6982 0.122262 17.7874 
443 1 106.42 1.93624 7.82432 17.654 
428 1 106.42 3.60155 5.73687 17.6287 
424 1 106.42 0.123027 5.51155 17.5354 
441 1 106.42 0.0126419 7.84818 15.8956 
427 1 106.42 5.72661 3.73571 17.779 
426 1 106.42 5.64579 5.97213 15.8664 
432 1 106.42 7.3579 5.77647 17.6761 
430 1 106.42 9.47669 5.91886 15.8544 
30 1 106.42 9.57504 5.9017 19.3934 
436 1 106.42 11.4991 5.7477 17.3915 
53 1 106.42 11.5087 7.75401 19.549 
457 1 106.42 15.7457 7.87432 15.5985 
435 1 106.42 13.7616 4.2261 17.5321 
440 1 106.42 15.6252 6.05279 17.7718 
455 1 106.42 13.4849 7.75239 17.5562 
37 1 106.42 15.6403 3.91012 19.7264 
439 1 106.42 17.4981 4.07566 17.4223 
65 1 106.42 3.71925 11.9911 19.4204 
41 1 106.42 0.242838 7.73478 19.5401 
448 1 106.42 3.81607 9.84923 17.6325 
444 1 106.42 0.0704186 9.83718 17.6967 
45 1 106.42 3.73638 7.84056 19.4781 
447 1 106.42 5.83857 7.9626 17.6101 
449 1 106.42 7.79791 7.79763 15.8463 
446 1 106.42 5.80693 10.0171 15.6731 
452 1 106.42 7.9035 9.8569 17.5694 
49 1 106.42 7.98472 7.87981 19.2044 
451 1 106.42 9.9298 7.91366 17.3633 
456 1 106.42 11.7055 9.91528 17.5802 
460 1 106.42 15.649 9.59356 17.6678 
458 1 106.42 17.6982 9.63944 15.6822 
477 1 106.42 15.7391 11.5242 15.6502 
61 1 106.42 19.6946 12.0024 19.8016 
459 1 106.42 17.7505 7.82377 17.7028 
479 1 106.42 17.5462 11.5787 17.5812 
461 1 106.42 0.191086 11.728 15.8459 
463 1 106.42 1.99179 11.8539 17.3795 
62 1 106.42 1.72908 13.7578 19.7008 
462 1 106.42 1.92394 13.9109 15.5013 
483 1 106.42 1.83389 15.7671 17.6018 
469 1 106.42 7.73411 11.7755 15.7083 
468 1 106.42 4.03654 13.7316 17.5671 
466 1 106.42 5.74749 13.5777 15.7482 
467 1 106.42 6.07724 11.7583 17.8243 
487 1 106.42 5.8325 15.6447 17.5062 
489 1 106.42 7.46108 15.334 15.712 
93 1 106.42 11.6125 15.7835 19.6249 
69 1 106.42 8.03999 11.9532 19.5306 
471 1 106.42 10.0324 12.1542 17.6201 
472 1 106.42 7.87929 13.8272 17.7901 
474 1 106.42 14.0554 13.7606 15.9108 
475 1 106.42 14.1046 11.654 17.764 
476 1 106.42 11.859 13.8024 17.8065 
495 1 106.42 13.8661 15.792 17.4694 
97 1 106.42 15.8129 15.4597 19.5402 
480 1 106.42 15.9717 13.7144 17.636 
464 1 106.42 19.5569 13.7157 17.763 
482 1 106.42 1.91065 17.7158 15.9113 
403 1 106.42 1.88077 19.4012 18.073 
401 1 106.42 -0.0162375 19.6056 15.6344 
405 1 106.42 3.90366 19.4228 15.8129 
86 1 106.42 5.98954 17.7812 19.5356 
488 1 106.42 4.01361 17.6417 17.8087 
486 1 106.42 5.72978 17.7725 15.7743 
90 1 106.42 10.0273 17.605 19.6501 
490 1 106.42 9.85463 17.8011 15.8683 
411 1 106.42 9.54592 19.5608 17.8012 
491 1 106.42 9.65438 15.4555 17.6797 
492 1 106.42 7.83031 17.6109 17.694 
94 1 106.42 13.9572 17.3391 19.4754 
17 1 106.42 15.5013 19.6793 19.5658 
415 1 106.42 13.6047 19.5804 17.5233 
496 1 106.42 11.8529 17.2277 17.4015 
497 1 106.42 15.793 15.7719 15.5198 
481 1 106.42 19.5996 16.0092 15.8403 
499 1 106.42 17.4764 15.6962 17.6102 
500 1 106.42 15.879 17.8044 17.6126 
498 1 106.42 17.7034 17.6471 15.8422 
484 1 106.42 19.5139 17.5558 17.8231 
