ITEM: TIMESTEP
67800
ITEM: NUMBER OF ATOMS
501
ITEM: BOX BOUNDS pp pp pp
0.0000000000000000e+00 1.9629018200000001e+01
0.0000000000000000e+00 1.9629018200000001e+01
0.0000000000000000e+00 1.9629018200000001e+01
ITEM: ATOMS id type mass x y z 
23 1 106.42 2.09106 3.99294 1.92406 
8 1 106.42 3.77216 1.75326 1.91708 
25 1 106.42 3.79492 3.65319 -0.106907 
4 1 106.42 0.516696 1.7953 2.1441 
27 1 106.42 5.74588 3.99342 1.99464 
7 1 106.42 6.02802 0.0585683 2.08889 
5 1 106.42 3.90109 -0.267971 0.173481 
12 1 106.42 8.04649 1.97622 2.07596 
6 1 106.42 6.10212 1.83677 0.291985 
16 1 106.42 11.7766 1.63176 2.00718 
35 1 106.42 13.7684 3.87449 1.9421 
15 1 106.42 13.857 -0.107261 2.09059 
137 1 106.42 15.6 4.03709 3.89824 
33 1 106.42 11.9645 3.7365 -0.26357 
20 1 106.42 15.5031 1.92453 2.01768 
39 1 106.42 17.7336 3.84211 2.04687 
1 1 106.42 19.602 -0.114306 0.0333024 
118 1 106.42 17.6654 1.79569 3.741 
43 1 106.42 2.21572 7.89579 1.92433 
122 1 106.42 1.85388 5.72072 3.81176 
22 1 106.42 2.01765 5.98812 0.19425 
28 1 106.42 3.90471 5.84467 2.07237 
129 1 106.42 7.84607 4.03929 3.68367 
32 1 106.42 7.76903 6.06009 1.90496 
29 1 106.42 7.70694 3.78792 0.347972 
26 1 106.42 5.64527 5.9493 0.0270576 
501 2 1.01 6.25771 7.55276 -0.20593 
31 1 106.42 9.78333 4.11054 1.81554 
130 1 106.42 9.65251 5.80235 3.84987 
51 1 106.42 9.87519 7.85929 1.70428 
153 1 106.42 11.8909 7.88133 3.96873 
133 1 106.42 11.6945 3.77714 3.82567 
36 1 106.42 11.7073 5.65088 2.00077 
40 1 106.42 15.7363 5.87441 1.7877 
57 1 106.42 15.5567 7.91743 -0.0844578 
134 1 106.42 13.787 5.78186 3.81773 
34 1 106.42 13.5461 5.72028 0.0292734 
24 1 106.42 19.6552 5.71879 1.92932 
59 1 106.42 17.4188 7.95177 1.86402 
38 1 106.42 17.9509 6.0834 -0.360699 
141 1 106.42 19.7228 7.68173 3.59989 
138 1 106.42 17.6601 5.73334 3.71474 
42 1 106.42 2.09836 9.92039 -0.140933 
48 1 106.42 4.00858 9.63547 2.15772 
44 1 106.42 0.338071 9.67121 1.9867 
63 1 106.42 1.83387 11.5892 1.93862 
47 1 106.42 5.89975 8.07587 1.80426 
146 1 106.42 5.84242 9.9071 3.69788 
169 1 106.42 7.81227 11.7051 3.56154 
46 1 106.42 5.77743 10.0622 -0.0972778 
149 1 106.42 8.19345 7.84811 3.72872 
52 1 106.42 7.87828 9.66522 1.76692 
71 1 106.42 10.0161 12.0656 2.23745 
150 1 106.42 9.998 9.8487 3.83872 
50 1 106.42 10.1252 10.0667 0.048783 
56 1 106.42 11.8317 9.92026 1.93909 
55 1 106.42 13.6393 7.87321 2.11176 
60 1 106.42 15.6289 9.84301 1.93934 
77 1 106.42 15.8561 11.64 0.0433833 
75 1 106.42 13.7072 11.7428 1.92712 
54 1 106.42 13.6131 9.69846 -0.175548 
157 1 106.42 15.6871 8.01372 3.88782 
177 1 106.42 15.8515 11.6391 4.06058 
158 1 106.42 17.9754 9.69545 3.81994 
58 1 106.42 17.8986 9.73505 -0.0405083 
68 1 106.42 3.7211 13.9339 2.08595 
64 1 106.42 -0.248557 13.7913 2.18648 
165 1 106.42 3.97255 11.7725 3.86943 
161 1 106.42 0.141633 11.6246 3.74917 
67 1 106.42 5.63027 11.9826 2.03646 
66 1 106.42 5.7545 14.0513 0.00851744 
87 1 106.42 5.5292 15.7015 2.01436 
72 1 106.42 7.54524 13.9 1.84746 
70 1 106.42 9.714 14.0352 0.157088 
73 1 106.42 11.8091 12.0255 -0.126629 
76 1 106.42 11.8593 13.7734 1.8694 
74 1 106.42 14.0479 13.7065 0.0728537 
80 1 106.42 15.7025 13.6821 2.03463 
174 1 106.42 13.8943 13.3974 3.77387 
79 1 106.42 17.7246 11.762 2.02825 
99 1 106.42 17.3472 15.5853 2.03971 
78 1 106.42 17.6437 13.6076 -0.00554267 
81 1 106.42 19.3089 15.6993 0.209257 
3 1 106.42 2.01211 19.3893 2.1452 
83 1 106.42 1.77142 15.6568 2.3032 
85 1 106.42 3.82984 15.6274 -0.164108 
101 1 106.42 -0.260955 19.483 4.13073 
82 1 106.42 1.86619 17.5824 0.297792 
89 1 106.42 7.65029 15.6391 -0.146844 
9 1 106.42 7.82512 19.5782 0.102636 
88 1 106.42 3.93638 17.6135 2.24183 
92 1 106.42 7.70953 17.3419 1.97927 
11 1 106.42 9.61064 19.613 1.99568 
91 1 106.42 9.73783 15.6823 2.08631 
96 1 106.42 11.5476 17.9075 1.91437 
190 1 106.42 9.46234 17.8916 3.81379 
193 1 106.42 11.5112 15.6117 3.84374 
95 1 106.42 13.7808 15.8611 2.13255 
100 1 106.42 16.0092 17.7933 1.9693 
13 1 106.42 11.733 19.5284 -0.397685 
19 1 106.42 17.4732 19.7979 1.64408 
84 1 106.42 19.3799 17.7881 2.155 
98 1 106.42 17.5966 17.6445 -0.0093386 
121 1 106.42 0.0571819 3.75863 3.96841 
102 1 106.42 2.01093 1.68822 4.02884 
202 1 106.42 1.93175 1.91663 8.07607 
225 1 106.42 4.06795 3.90746 7.56813 
123 1 106.42 1.95656 3.77006 5.98942 
105 1 106.42 4.03381 -0.060241 4.09466 
108 1 106.42 3.99233 2.01389 6.12734 
106 1 106.42 5.77526 2.01304 3.76395 
206 1 106.42 5.95619 2.06944 8.03806 
112 1 106.42 7.58944 2.1979 5.9317 
107 1 106.42 5.96649 -0.139158 6.25203 
110 1 106.42 9.75642 1.85738 3.876 
210 1 106.42 9.50399 2.08601 7.85853 
111 1 106.42 9.81684 -0.105168 5.73793 
213 1 106.42 11.6992 0.260725 8.06119 
209 1 106.42 7.96725 -0.0502016 7.6403 
114 1 106.42 13.8262 2.16896 4.13003 
113 1 106.42 11.8222 -0.0163301 3.63608 
116 1 106.42 11.6689 1.91617 6.07245 
120 1 106.42 15.5818 2.0278 6.45542 
104 1 106.42 19.5489 1.9053 5.81631 
139 1 106.42 17.4184 3.62272 5.59107 
237 1 106.42 15.559 4.02389 8.03006 
119 1 106.42 17.5872 0.0682894 5.92227 
218 1 106.42 17.858 1.93543 8.01283 
145 1 106.42 4.04644 7.67318 4.02832 
143 1 106.42 1.6039 7.85278 5.86116 
128 1 106.42 3.91982 5.80832 5.94031 
222 1 106.42 1.62864 5.76505 7.60497 
126 1 106.42 6.0775 5.89553 3.86217 
125 1 106.42 4.16455 4.21437 4.12924 
127 1 106.42 6.17898 4.29208 6.03809 
132 1 106.42 8.04278 5.94349 5.97046 
131 1 106.42 9.71398 3.95214 5.56804 
136 1 106.42 11.6995 5.82101 5.74282 
230 1 106.42 9.69436 5.91399 7.94199 
233 1 106.42 11.6848 4.1414 8.00014 
135 1 106.42 13.613 4.04127 6.03426 
253 1 106.42 11.908 7.9056 7.56544 
234 1 106.42 13.8885 6.05106 7.75239 
124 1 106.42 19.3876 5.8144 5.82667 
241 1 106.42 19.5136 7.9623 7.84293 
140 1 106.42 15.6764 5.84821 5.85929 
159 1 106.42 17.5849 7.64732 5.65742 
238 1 106.42 17.6588 5.48885 7.80407 
142 1 106.42 1.95616 9.6728 4.20803 
242 1 106.42 1.96554 10.0132 7.72752 
148 1 106.42 4.23589 9.98041 5.73248 
147 1 106.42 5.92493 7.86263 5.9193 
152 1 106.42 7.72252 9.73167 5.68235 
167 1 106.42 5.89017 11.8142 5.83573 
245 1 106.42 3.65258 7.82799 7.41 
246 1 106.42 5.77059 9.95468 7.96135 
151 1 106.42 9.82069 7.86586 5.85033 
156 1 106.42 11.7898 9.89236 5.81409 
250 1 106.42 9.72647 9.68585 7.53422 
171 1 106.42 9.64816 11.7983 5.53543 
154 1 106.42 13.5983 9.9523 3.85885 
155 1 106.42 13.9086 7.93689 5.55676 
160 1 106.42 15.6575 9.91736 5.84685 
254 1 106.42 13.8484 9.53086 7.77169 
175 1 106.42 13.5982 11.7186 6.13358 
144 1 106.42 19.5556 9.81103 5.84467 
261 1 106.42 19.475 11.62 7.99897 
179 1 106.42 17.8263 11.8155 5.90218 
185 1 106.42 4.26532 15.7237 4.33217 
162 1 106.42 1.95556 13.7768 4.18166 
163 1 106.42 2.06168 11.746 6.12541 
183 1 106.42 1.99792 16.0204 5.84699 
262 1 106.42 1.86551 13.6362 8.02696 
166 1 106.42 5.74143 13.6049 4.02708 
168 1 106.42 4.03677 13.7723 6.15047 
187 1 106.42 5.8303 15.7824 6.05125 
172 1 106.42 7.74084 13.9704 5.86665 
189 1 106.42 7.79332 15.633 3.85716 
170 1 106.42 9.52068 13.8632 4.2234 
176 1 106.42 11.9181 13.8208 5.63505 
273 1 106.42 11.5315 12.0014 7.72753 
269 1 106.42 7.93099 11.7619 7.73557 
270 1 106.42 9.85346 13.7996 7.52993 
173 1 106.42 11.8978 11.8366 3.95527 
274 1 106.42 13.5568 13.658 7.63241 
197 1 106.42 15.4616 15.8788 3.98753 
195 1 106.42 13.7572 15.6367 5.89427 
180 1 106.42 15.6881 13.5002 5.88847 
164 1 106.42 19.5685 13.4778 5.86405 
178 1 106.42 17.6449 13.8169 3.99078 
199 1 106.42 17.4768 15.6631 5.97015 
281 1 106.42 19.7154 15.537 7.67974 
182 1 106.42 2.13618 17.6228 3.97861 
103 1 106.42 1.79798 19.7212 6.00264 
188 1 106.42 3.87341 17.8402 6.20285 
184 1 106.42 0.0863789 17.6208 6.15391 
186 1 106.42 5.95365 17.7735 4.30657 
192 1 106.42 7.77303 17.4996 6.0677 
191 1 106.42 9.86838 15.8105 5.77283 
109 1 106.42 7.71479 19.8523 3.90658 
196 1 106.42 11.8627 17.9186 5.86563 
117 1 106.42 15.74 19.7604 4.06361 
115 1 106.42 13.586 19.8005 5.87487 
194 1 106.42 13.6621 17.6091 4.16934 
200 1 106.42 15.8238 17.7598 6.09721 
294 1 106.42 13.7204 17.7518 8.14326 
181 1 106.42 19.6288 15.7493 4.16024 
198 1 106.42 17.5127 17.7379 4.30653 
201 1 106.42 19.6736 19.6938 7.85653 
298 1 106.42 17.6573 17.6912 7.88324 
221 1 106.42 0.00414387 3.68262 7.86024 
203 1 106.42 2.15723 0.0682845 9.91079 
302 1 106.42 1.86233 2.06154 11.683 
208 1 106.42 4.11956 2.08064 9.86363 
207 1 106.42 6.22691 0.0646427 9.67614 
212 1 106.42 7.99414 2.00738 9.79973 
211 1 106.42 10.1054 -0.10933 9.98592 
216 1 106.42 11.5776 2.14333 9.93055 
309 1 106.42 8.06801 0.356238 11.705 
214 1 106.42 13.3626 2.30074 8.02129 
215 1 106.42 13.6393 0.108869 10.1654 
314 1 106.42 13.5582 2.12337 11.8508 
217 1 106.42 15.391 0.196249 8.10062 
313 1 106.42 11.7782 0.245598 11.9305 
204 1 106.42 19.5951 1.82725 9.70506 
220 1 106.42 15.7123 2.02511 10.019 
239 1 106.42 17.6009 3.90182 9.86214 
223 1 106.42 2.05186 3.90254 9.72169 
322 1 106.42 1.99467 5.86781 11.5993 
228 1 106.42 3.97608 6.24354 9.72778 
229 1 106.42 7.69416 4.09108 8.00551 
227 1 106.42 5.65309 4.07037 9.71884 
226 1 106.42 5.95659 6.3128 7.71041 
232 1 106.42 7.55237 5.91829 9.77378 
326 1 106.42 5.73934 5.96215 11.6036 
231 1 106.42 9.65629 4.15078 9.81178 
236 1 106.42 11.7242 6.09778 9.58338 
235 1 106.42 13.8541 4.20692 9.91439 
255 1 106.42 13.652 7.8965 9.64551 
333 1 106.42 11.8412 4.0411 11.7683 
224 1 106.42 19.5597 5.89561 9.69817 
240 1 106.42 15.6419 6.05884 9.79908 
243 1 106.42 1.88155 7.92022 9.42654 
342 1 106.42 1.92465 9.88172 11.5379 
361 1 106.42 -0.106047 11.6889 11.7655 
263 1 106.42 1.87544 11.6527 9.74782 
345 1 106.42 3.82532 8.04604 11.8219 
249 1 106.42 7.70688 8.03993 7.84647 
248 1 106.42 4.09039 10.0146 9.84794 
247 1 106.42 5.86399 7.97616 9.83371 
365 1 106.42 3.83973 11.669 11.8802 
252 1 106.42 7.78776 9.95483 9.66591 
346 1 106.42 6.03976 9.9201 11.615 
251 1 106.42 9.70199 7.79959 9.5905 
256 1 106.42 11.6404 9.8187 9.5675 
373 1 106.42 11.6613 11.7428 11.7601 
353 1 106.42 11.6105 7.93601 11.5263 
354 1 106.42 13.597 9.85775 11.4779 
275 1 106.42 13.6572 11.7541 9.7538 
258 1 106.42 17.3914 9.92628 7.79032 
257 1 106.42 15.765 7.76399 7.72394 
259 1 106.42 17.728 7.80867 9.61795 
244 1 106.42 19.6021 9.72641 9.72378 
260 1 106.42 15.4556 9.86538 9.83339 
279 1 106.42 17.7442 11.7697 9.9313 
264 1 106.42 0.130897 13.6524 10.2089 
265 1 106.42 3.94581 11.8369 8.1455 
267 1 106.42 6.19964 12.0419 9.78767 
268 1 106.42 3.782 13.5991 10.1277 
266 1 106.42 5.88374 13.7902 7.94005 
287 1 106.42 5.79547 15.7001 10.1586 
289 1 106.42 7.81592 15.8461 7.80735 
272 1 106.42 8.14407 14.0276 9.85246 
271 1 106.42 9.83523 11.7339 9.66403 
369 1 106.42 8.113 11.7833 11.486 
277 1 106.42 15.7307 11.8746 8.06319 
276 1 106.42 11.6832 13.6733 9.56301 
280 1 106.42 15.5691 13.6506 9.63303 
295 1 106.42 13.897 15.7323 9.82604 
393 1 106.42 11.8787 15.731 11.9198 
278 1 106.42 17.6422 13.6969 7.87147 
299 1 106.42 17.7598 15.6477 9.8855 
377 1 106.42 15.7781 12.0302 11.5806 
282 1 106.42 2.08711 17.5536 8.15771 
283 1 106.42 2.18369 15.6848 9.98928 
205 1 106.42 3.82921 19.6879 7.82877 
284 1 106.42 0.133915 17.711 9.80117 
305 1 106.42 4.41375 19.5371 11.7634 
285 1 106.42 3.93167 15.8146 7.95245 
286 1 106.42 5.65772 17.5484 8.31467 
288 1 106.42 3.87532 17.5701 10.2058 
291 1 106.42 9.79889 15.6875 9.57808 
292 1 106.42 7.90588 17.7525 9.87614 
290 1 106.42 9.80346 17.8429 7.89328 
297 1 106.42 15.5191 15.6426 7.85926 
293 1 106.42 11.8262 15.7112 7.74071 
296 1 106.42 11.9674 17.4487 9.75196 
219 1 106.42 17.6636 19.4481 9.86328 
300 1 106.42 15.632 17.5127 9.90921 
317 1 106.42 15.6898 19.4089 11.5963 
398 1 106.42 17.6743 17.5606 11.8252 
304 1 106.42 0.166776 1.8339 13.9609 
303 1 106.42 2.39469 0.0788887 13.6312 
425 1 106.42 3.79576 3.66228 15.7323 
421 1 106.42 -0.0696482 3.9771 15.6846 
306 1 106.42 5.87861 2.10111 11.5853 
308 1 106.42 3.93627 2.15083 13.6559 
406 1 106.42 5.93513 1.94741 15.7962 
312 1 106.42 7.7594 2.04415 13.8408 
310 1 106.42 9.74094 2.32063 11.8412 
311 1 106.42 9.61174 0.0960843 13.7036 
410 1 106.42 10.2101 1.92673 15.5877 
316 1 106.42 11.8468 1.95368 13.5896 
315 1 106.42 13.8488 0.0498324 13.6596 
437 1 106.42 15.7611 3.99328 15.7615 
433 1 106.42 11.9194 4.03581 15.4872 
318 1 106.42 17.7334 2.0982 11.9721 
320 1 106.42 15.8153 1.99155 13.7303 
319 1 106.42 17.6433 0.144043 13.7623 
323 1 106.42 2.01748 4.03297 13.5476 
324 1 106.42 -0.119861 5.7329 13.6921 
343 1 106.42 2.06982 7.80349 13.6555 
422 1 106.42 2.09696 5.71952 15.6083 
325 1 106.42 3.96482 4.01071 11.6554 
327 1 106.42 6.21702 4.0813 13.7594 
328 1 106.42 4.02018 5.78105 13.8559 
332 1 106.42 7.99052 5.84058 13.6965 
329 1 106.42 7.60088 3.92498 11.3936 
330 1 106.42 9.62532 5.89996 11.7457 
331 1 106.42 9.86324 4.04871 13.9404 
336 1 106.42 11.7431 5.82476 13.7193 
351 1 106.42 9.85774 8.07825 13.7992 
334 1 106.42 13.6276 5.91521 11.6845 
335 1 106.42 13.8462 3.79567 13.8011 
434 1 106.42 13.817 6.09137 15.7509 
357 1 106.42 15.6973 7.94012 11.6264 
321 1 106.42 19.7376 4.02708 11.665 
337 1 106.42 15.7481 3.80294 11.9598 
341 1 106.42 20.0062 7.53378 11.7975 
339 1 106.42 17.578 4.12322 13.6223 
338 1 106.42 17.5387 5.81695 11.5127 
340 1 106.42 15.5559 6.03111 13.7361 
359 1 106.42 17.83 7.7415 13.7095 
438 1 106.42 17.6189 5.97914 15.6759 
363 1 106.42 1.73212 11.8498 13.5465 
445 1 106.42 3.9661 7.84143 15.8238 
442 1 106.42 2.05294 9.68255 15.5072 
344 1 106.42 0.0939332 9.7701 13.7884 
465 1 106.42 3.79259 11.6867 15.5434 
348 1 106.42 4.40905 9.63343 13.565 
347 1 106.42 5.95968 7.6239 13.4994 
352 1 106.42 7.90189 9.78201 13.8098 
349 1 106.42 7.95938 7.7229 11.85 
350 1 106.42 9.94302 9.69787 11.6044 
450 1 106.42 9.86177 10.131 15.6742 
453 1 106.42 12.0775 7.98205 15.6743 
356 1 106.42 11.9148 9.72849 13.6932 
355 1 106.42 13.3081 7.70156 13.5208 
454 1 106.42 13.8184 9.79782 15.4951 
358 1 106.42 17.9326 9.53737 11.8754 
360 1 106.42 15.9033 9.74668 13.732 
379 1 106.42 17.9692 11.7667 14.0579 
362 1 106.42 2.0932 13.8164 11.9424 
368 1 106.42 3.89773 13.9585 14.0187 
364 1 106.42 0.0054126 13.8986 14.0016 
385 1 106.42 3.91358 15.5651 12.1139 
367 1 106.42 5.71554 11.9345 13.6163 
485 1 106.42 3.76515 15.7832 16.0151 
366 1 106.42 5.99589 13.5924 11.8278 
387 1 106.42 5.81987 15.4641 13.7168 
370 1 106.42 10.1518 13.9276 11.7667 
372 1 106.42 7.8891 13.7633 13.588 
371 1 106.42 9.94985 11.5955 13.5788 
376 1 106.42 11.9763 13.7179 13.7881 
470 1 106.42 9.76827 13.7511 15.4459 
493 1 106.42 11.8196 15.3738 15.5613 
374 1 106.42 13.6713 13.712 11.5493 
473 1 106.42 12.0204 11.8216 15.6727 
375 1 106.42 13.9152 11.67 13.3464 
395 1 106.42 13.9007 15.6004 13.9273 
378 1 106.42 17.8596 13.6657 11.8663 
381 1 106.42 19.7751 15.6141 11.7399 
380 1 106.42 15.7315 13.5521 13.7691 
399 1 106.42 17.4984 15.6888 13.8958 
478 1 106.42 17.6051 13.7643 15.7506 
397 1 106.42 15.8158 15.5039 11.6462 
383 1 106.42 2.04541 16.047 13.8569 
382 1 106.42 1.92555 17.8088 11.9438 
301 1 106.42 0.0327445 19.726 11.892 
386 1 106.42 6.0562 17.5491 11.8831 
388 1 106.42 3.9408 17.8148 13.7098 
307 1 106.42 6.22499 19.4609 13.676 
392 1 106.42 7.61416 17.4343 14.1617 
390 1 106.42 10.1106 17.5316 11.9282 
391 1 106.42 9.68099 15.7841 13.884 
389 1 106.42 7.9588 15.6084 11.9666 
394 1 106.42 13.8567 17.3997 11.9181 
396 1 106.42 11.893 17.5434 13.968 
413 1 106.42 11.7573 19.5232 15.6882 
494 1 106.42 13.9432 17.7473 15.528 
384 1 106.42 19.5186 17.716 13.5112 
400 1 106.42 15.8198 17.8518 13.5808 
402 1 106.42 1.981 1.64902 15.7529 
2 1 106.42 2.00042 1.62319 19.7835 
404 1 106.42 -0.0804126 1.76352 17.5173 
423 1 106.42 1.93762 3.71049 17.5262 
21 1 106.42 0.241766 3.40474 19.5731 
429 1 106.42 7.90681 3.68467 15.8643 
408 1 106.42 4.03672 1.84884 17.8744 
407 1 106.42 5.94503 0.0171948 17.7358 
10 1 106.42 9.83191 1.75165 19.6218 
409 1 106.42 8.17119 0.204012 15.7261 
412 1 106.42 7.94017 1.92202 17.9258 
431 1 106.42 9.93589 3.84685 17.3551 
414 1 106.42 13.844 1.7223 15.7481 
14 1 106.42 13.5284 1.78934 19.6582 
416 1 106.42 11.8501 1.63908 17.5763 
420 1 106.42 15.7302 1.94068 17.6616 
417 1 106.42 15.8678 0.184942 15.8556 
418 1 106.42 17.8057 2.014 15.6851 
18 1 106.42 17.8471 2.01281 19.6214 
419 1 106.42 17.6605 0.114916 17.7977 
443 1 106.42 1.93871 7.85369 17.7395 
428 1 106.42 3.58486 5.752 17.6178 
424 1 106.42 0.112067 5.5399 17.525 
441 1 106.42 -0.00294475 7.87518 15.8469 
427 1 106.42 5.76848 3.68358 17.7801 
426 1 106.42 5.69362 5.95814 15.847 
432 1 106.42 7.34295 5.76794 17.6859 
430 1 106.42 9.49498 5.90772 15.8502 
30 1 106.42 9.57929 5.92931 19.3946 
436 1 106.42 11.5195 5.76114 17.409 
53 1 106.42 11.527 7.74087 19.58 
457 1 106.42 15.7755 7.89569 15.5526 
435 1 106.42 13.7054 4.1891 17.5575 
440 1 106.42 15.666 6.06705 17.7562 
455 1 106.42 13.484 7.76158 17.5904 
37 1 106.42 15.6086 3.88405 19.7142 
439 1 106.42 17.5079 4.04836 17.4025 
65 1 106.42 3.71364 12.0389 19.4697 
41 1 106.42 0.236786 7.72793 19.5781 
448 1 106.42 3.85763 9.84484 17.6473 
444 1 106.42 0.0583183 9.84128 17.6982 
45 1 106.42 3.73163 7.82125 19.502 
447 1 106.42 5.88315 7.96794 17.6503 
449 1 106.42 7.82471 7.79061 15.8088 
446 1 106.42 5.87375 9.98071 15.6801 
452 1 106.42 7.96087 9.86988 17.5983 
49 1 106.42 7.97438 7.89404 19.2186 
451 1 106.42 9.92542 7.91753 17.3906 
456 1 106.42 11.7312 9.91933 17.6025 
460 1 106.42 15.656 9.59691 17.7282 
458 1 106.42 17.7145 9.63504 15.6811 
477 1 106.42 15.7417 11.5899 15.6359 
61 1 106.42 19.7263 12.0279 19.8322 
459 1 106.42 17.7374 7.80704 17.6705 
479 1 106.42 17.5556 11.5811 17.5547 
461 1 106.42 0.168498 11.7234 15.8449 
463 1 106.42 1.99653 11.8537 17.3616 
62 1 106.42 1.69122 13.757 19.7223 
462 1 106.42 1.92859 13.9413 15.4975 
483 1 106.42 1.83215 15.7597 17.6097 
469 1 106.42 7.75204 11.7814 15.6891 
468 1 106.42 4.02039 13.7335 17.575 
466 1 106.42 5.76238 13.5576 15.7689 
467 1 106.42 6.05897 11.7436 17.839 
487 1 106.42 5.84778 15.6742 17.4495 
489 1 106.42 7.45212 15.3331 15.6896 
93 1 106.42 11.6391 15.7919 19.6447 
69 1 106.42 8.06313 11.9298 19.545 
471 1 106.42 9.96047 12.1787 17.6316 
472 1 106.42 7.856 13.8429 17.8069 
474 1 106.42 14.073 13.7281 15.8827 
475 1 106.42 14.0903 11.6331 17.7112 
476 1 106.42 11.8612 13.8011 17.8284 
495 1 106.42 13.8662 15.7846 17.4391 
97 1 106.42 15.8204 15.4644 19.568 
480 1 106.42 15.9591 13.7293 17.6746 
464 1 106.42 19.5812 13.7062 17.7838 
482 1 106.42 1.9149 17.7603 15.9003 
403 1 106.42 1.88998 19.4236 18.048 
401 1 106.42 -0.0249312 19.6303 15.6193 
405 1 106.42 3.95073 19.4098 15.7772 
86 1 106.42 5.97428 17.7986 19.5729 
488 1 106.42 4.00302 17.6484 17.8086 
486 1 106.42 5.71357 17.7761 15.7746 
90 1 106.42 10.015 17.5883 19.636 
490 1 106.42 9.86004 17.803 15.8458 
411 1 106.42 9.52614 19.5427 17.756 
491 1 106.42 9.62464 15.4375 17.656 
492 1 106.42 7.81418 17.6006 17.7314 
94 1 106.42 13.9427 17.3484 19.488 
17 1 106.42 15.5169 19.6933 19.5977 
415 1 106.42 13.5792 19.5404 17.4884 
496 1 106.42 11.8193 17.2439 17.3777 
497 1 106.42 15.7407 15.7828 15.4798 
481 1 106.42 19.5981 16.0099 15.8275 
499 1 106.42 17.4496 15.6788 17.6095 
500 1 106.42 15.8433 17.8143 17.642 
498 1 106.42 17.7144 17.651 15.8023 
484 1 106.42 19.5438 17.5274 17.8008 
