ITEM: TIMESTEP
69200
ITEM: NUMBER OF ATOMS
501
ITEM: BOX BOUNDS pp pp pp
0.0000000000000000e+00 1.9629018200000001e+01
0.0000000000000000e+00 1.9629018200000001e+01
0.0000000000000000e+00 1.9629018200000001e+01
ITEM: ATOMS id type mass x y z 
23 1 106.42 1.96049 3.71515 2.11558 
8 1 106.42 4.06637 1.81575 2.03128 
25 1 106.42 3.86547 3.96453 19.5557 
4 1 106.42 -0.206645 2.20371 2.02987 
27 1 106.42 5.7591 3.97003 1.69749 
7 1 106.42 5.77027 -0.202523 2.05371 
5 1 106.42 3.61819 19.5412 0.12588 
12 1 106.42 7.65784 1.87822 1.56183 
6 1 106.42 5.57045 1.73191 -0.00877713 
16 1 106.42 11.8282 1.92143 1.79593 
35 1 106.42 13.5937 3.96929 2.10922 
15 1 106.42 13.6845 19.4252 1.9869 
137 1 106.42 15.7526 3.82366 3.88729 
33 1 106.42 11.5508 3.93267 19.4992 
20 1 106.42 15.4602 2.04011 2.07165 
39 1 106.42 17.4594 3.79581 1.89306 
1 1 106.42 19.8017 19.4018 0.277809 
118 1 106.42 17.7373 1.89048 4.12745 
43 1 106.42 1.9755 7.7582 2.15726 
122 1 106.42 2.05838 5.86725 4.02338 
22 1 106.42 2.0331 5.82259 -0.141804 
28 1 106.42 3.91829 6.08676 1.98692 
129 1 106.42 7.79752 3.81044 3.9761 
32 1 106.42 8.00481 5.75699 1.87774 
29 1 106.42 7.82882 3.91301 -0.0885655 
26 1 106.42 5.84077 5.80632 -0.226409 
501 2 1.01 5.69873 7.44114 19.5922 
31 1 106.42 9.83682 3.7324 1.93758 
130 1 106.42 10.4468 5.73726 3.73788 
51 1 106.42 9.74925 7.74286 1.96624 
153 1 106.42 11.8844 7.81485 3.74186 
133 1 106.42 11.6192 3.75452 4.11568 
36 1 106.42 11.6752 5.76837 1.67046 
40 1 106.42 15.9254 5.81885 1.7582 
57 1 106.42 15.7872 7.89333 19.8616 
134 1 106.42 13.5561 5.82131 3.95337 
34 1 106.42 13.9954 5.70389 -0.109248 
24 1 106.42 -0.0752755 5.7497 1.98604 
59 1 106.42 17.8462 7.90041 1.91897 
38 1 106.42 17.5185 5.56082 19.6867 
141 1 106.42 -0.0516822 7.79437 3.75368 
138 1 106.42 17.6148 5.86819 3.8052 
42 1 106.42 2.0896 9.98771 19.6466 
48 1 106.42 3.96473 10.0248 1.84088 
44 1 106.42 -0.0320102 9.92102 1.94277 
63 1 106.42 2.07573 12.0462 2.21889 
47 1 106.42 5.96799 7.72711 1.99082 
146 1 106.42 6.05052 9.55676 3.71195 
169 1 106.42 7.73199 11.9273 3.63046 
46 1 106.42 5.85926 9.89219 19.8523 
149 1 106.42 7.92305 7.70012 4.07721 
52 1 106.42 7.99881 9.90345 1.97522 
71 1 106.42 9.88982 12.0131 1.63843 
150 1 106.42 9.70112 9.71533 3.80418 
50 1 106.42 10.0376 10.1113 0.00926671 
56 1 106.42 11.7179 9.69392 1.81728 
55 1 106.42 13.7597 7.5529 1.80234 
60 1 106.42 15.7329 9.81732 1.80978 
77 1 106.42 15.8386 11.8296 -0.0844152 
75 1 106.42 14.0402 11.8602 1.75804 
54 1 106.42 13.7997 9.78192 19.8853 
157 1 106.42 15.7534 7.75597 3.60256 
177 1 106.42 15.6506 11.7261 3.89622 
158 1 106.42 17.6937 9.88025 4.00404 
58 1 106.42 17.6895 9.80899 19.4667 
68 1 106.42 4.08247 13.8753 2.35187 
64 1 106.42 19.4672 13.5411 2.14513 
165 1 106.42 3.99629 11.631 4.16826 
161 1 106.42 -0.0763324 11.9014 4.06636 
67 1 106.42 5.79827 11.881 1.82667 
66 1 106.42 5.66122 13.8714 -0.264756 
87 1 106.42 6.16921 15.7824 1.81873 
72 1 106.42 7.78825 13.7886 1.68132 
70 1 106.42 10.1018 13.656 -0.27995 
73 1 106.42 12.1047 11.8983 19.5602 
76 1 106.42 12.1876 13.84 2.05429 
74 1 106.42 13.7285 13.8829 -0.156296 
80 1 106.42 15.799 13.6524 1.82697 
174 1 106.42 13.7489 13.9339 3.94166 
79 1 106.42 17.6971 11.5245 2.13591 
99 1 106.42 17.9377 15.9211 1.82078 
78 1 106.42 17.847 13.7509 19.6237 
81 1 106.42 19.4907 15.6154 -0.0924809 
3 1 106.42 1.88501 19.5786 2.09526 
83 1 106.42 1.97661 15.4855 2.30204 
85 1 106.42 3.91323 15.7666 19.5462 
101 1 106.42 19.6298 19.525 4.09551 
82 1 106.42 1.83088 17.3901 0.274623 
89 1 106.42 8.01662 15.7 19.6147 
9 1 106.42 7.9511 19.7035 -0.0931884 
88 1 106.42 3.75075 17.529 1.96936 
92 1 106.42 8.03752 17.9651 1.84882 
11 1 106.42 9.98381 19.496 1.95998 
91 1 106.42 9.91146 15.5208 1.81225 
96 1 106.42 11.728 17.2833 1.97527 
190 1 106.42 9.9733 17.4149 3.78863 
193 1 106.42 11.9228 15.7421 3.9538 
95 1 106.42 14.0068 15.7072 1.8816 
100 1 106.42 15.9959 17.9234 2.17437 
13 1 106.42 11.6441 19.325 19.6169 
19 1 106.42 17.8601 0.251696 2.10337 
84 1 106.42 19.6261 17.5684 2.11938 
98 1 106.42 17.7502 17.7748 19.4977 
121 1 106.42 -0.0522901 4.05115 3.87834 
102 1 106.42 2.01707 2.07043 3.87902 
202 1 106.42 2.13713 2.23817 7.55207 
225 1 106.42 3.88366 4.07366 7.88501 
123 1 106.42 2.17941 3.77616 5.6721 
105 1 106.42 3.89552 19.4759 4.10773 
108 1 106.42 4.07012 1.93218 5.84231 
106 1 106.42 6.04728 2.05641 3.87264 
206 1 106.42 5.88364 1.88195 8.05089 
112 1 106.42 7.91216 1.76848 6.16111 
107 1 106.42 5.83849 19.6022 6.16866 
110 1 106.42 9.70507 1.9103 4.05486 
210 1 106.42 9.94339 1.69097 8.00873 
111 1 106.42 9.87423 19.6712 6.0225 
213 1 106.42 11.9107 -0.0670385 7.9339 
209 1 106.42 7.95628 19.4585 8.01457 
114 1 106.42 13.5214 1.95746 3.8914 
113 1 106.42 11.6626 19.5417 3.96362 
116 1 106.42 11.7962 1.90766 5.87267 
120 1 106.42 15.5324 2.18212 5.83183 
104 1 106.42 19.907 1.88871 5.93095 
139 1 106.42 17.5613 3.69022 6.03473 
237 1 106.42 15.4481 4.00372 8.03731 
119 1 106.42 17.5621 0.173012 6.3764 
218 1 106.42 17.1291 1.96268 8.08351 
145 1 106.42 3.90393 8.02387 4.03283 
143 1 106.42 1.85182 7.89577 5.82701 
128 1 106.42 4.03534 5.84861 5.86054 
222 1 106.42 1.89553 5.69996 7.56681 
126 1 106.42 5.92336 5.98331 3.91156 
125 1 106.42 4.04086 3.63121 3.74814 
127 1 106.42 5.75781 3.75358 5.718 
132 1 106.42 7.82114 5.75057 5.61916 
131 1 106.42 9.55736 3.9606 6.10626 
136 1 106.42 11.8344 5.70214 5.99651 
230 1 106.42 9.67119 6.01065 7.63961 
233 1 106.42 11.7119 3.95252 7.96839 
135 1 106.42 13.6571 3.70583 5.97894 
253 1 106.42 11.5459 7.9582 7.93387 
234 1 106.42 13.3458 6.08726 7.92613 
124 1 106.42 19.55 5.66842 5.84375 
241 1 106.42 19.5991 7.6102 7.62112 
140 1 106.42 15.654 5.52077 5.63958 
159 1 106.42 17.789 7.78549 5.69031 
238 1 106.42 17.5927 5.77625 7.64982 
142 1 106.42 1.92242 9.94995 3.72253 
242 1 106.42 2.03474 9.78197 8.28799 
148 1 106.42 3.672 9.68545 5.96131 
147 1 106.42 5.85502 8.0621 5.76955 
152 1 106.42 7.98492 10.1111 5.65211 
167 1 106.42 5.9998 11.9183 5.83739 
245 1 106.42 3.58482 7.85497 7.72654 
246 1 106.42 5.55891 9.6183 7.82741 
151 1 106.42 10.1049 7.72481 5.70181 
156 1 106.42 11.7569 9.71123 5.66347 
250 1 106.42 9.72839 9.92036 7.7684 
171 1 106.42 9.72151 11.8075 5.74047 
154 1 106.42 13.8433 9.74937 3.90862 
155 1 106.42 13.6575 7.73974 6.02045 
160 1 106.42 15.8568 9.65561 5.88387 
254 1 106.42 13.9188 9.92712 7.78452 
175 1 106.42 13.9184 11.6264 5.82769 
144 1 106.42 19.7366 9.91802 6.02639 
261 1 106.42 19.5015 11.8077 8.02282 
179 1 106.42 17.5668 12.0108 5.89355 
185 1 106.42 3.96523 15.8764 4.02726 
162 1 106.42 1.93216 13.6035 3.88824 
163 1 106.42 1.77388 11.7638 5.9804 
183 1 106.42 2.09903 15.6062 5.90139 
262 1 106.42 1.82425 13.4454 8.033 
166 1 106.42 6.26815 14.0785 3.89203 
168 1 106.42 3.79291 13.7124 5.81008 
187 1 106.42 5.91033 15.9928 6.23902 
172 1 106.42 7.8169 14.0402 5.92213 
189 1 106.42 7.63219 16.1286 3.82738 
170 1 106.42 9.51521 13.9269 3.64919 
176 1 106.42 11.6909 13.4246 5.76577 
273 1 106.42 11.7925 11.569 7.71437 
269 1 106.42 7.86255 11.6708 7.80804 
270 1 106.42 9.7271 13.5786 7.60846 
173 1 106.42 11.7848 11.6141 3.79295 
274 1 106.42 13.8023 13.9192 7.97113 
197 1 106.42 15.863 15.7427 3.91419 
195 1 106.42 13.7512 15.8536 5.84918 
180 1 106.42 15.6182 13.9174 5.97689 
164 1 106.42 19.8448 14.1356 5.95885 
178 1 106.42 17.4873 13.8133 3.98153 
199 1 106.42 17.6669 15.6924 6.00517 
281 1 106.42 0.184057 15.846 8.13223 
182 1 106.42 1.76671 17.5901 4.11522 
103 1 106.42 2.06018 -0.142969 6.01814 
188 1 106.42 3.77403 17.7275 6.14717 
184 1 106.42 -0.17374 17.5575 6.00954 
186 1 106.42 5.76266 17.7159 3.89089 
192 1 106.42 8.00875 17.8861 5.95153 
191 1 106.42 9.78863 15.7244 5.78204 
109 1 106.42 7.63105 0.067626 4.18018 
196 1 106.42 11.9717 17.7979 5.98243 
117 1 106.42 15.6954 0.14093 4.13269 
115 1 106.42 13.796 0.185168 6.04904 
194 1 106.42 13.8345 17.4323 3.80122 
200 1 106.42 15.4091 17.9265 5.9363 
294 1 106.42 13.5983 17.6751 7.876 
181 1 106.42 -0.0105166 15.4971 3.91369 
198 1 106.42 17.7988 17.4629 3.98146 
201 1 106.42 0.179953 -0.154641 7.999 
298 1 106.42 17.6471 17.5343 7.8863 
221 1 106.42 19.4565 3.73248 7.69307 
203 1 106.42 1.92834 0.0133986 9.87286 
302 1 106.42 1.96109 1.90211 11.725 
208 1 106.42 3.95562 2.01557 9.82259 
207 1 106.42 5.76693 -0.0922162 10.0857 
212 1 106.42 7.88249 1.75031 9.69586 
211 1 106.42 9.65639 19.8184 9.92107 
216 1 106.42 11.5952 1.87756 9.99219 
309 1 106.42 7.69722 -0.0646981 11.9622 
214 1 106.42 13.7348 1.74164 8.13276 
215 1 106.42 13.4358 -0.149119 10.0149 
314 1 106.42 13.6378 1.95224 11.9332 
217 1 106.42 15.5214 -0.159801 8.03975 
313 1 106.42 11.5247 -0.234586 11.964 
204 1 106.42 19.739 2.08062 9.58148 
220 1 106.42 15.41 1.88064 9.92309 
239 1 106.42 17.4627 3.86037 9.79395 
223 1 106.42 1.90628 3.88338 9.8056 
322 1 106.42 2.02634 5.75187 11.9799 
228 1 106.42 3.80653 6.09779 9.40063 
229 1 106.42 7.76679 4.02947 7.82693 
227 1 106.42 5.83154 4.15415 9.73144 
226 1 106.42 5.89058 5.97372 7.68043 
232 1 106.42 7.82351 6.13317 9.45125 
326 1 106.42 5.71009 5.6521 11.8732 
231 1 106.42 9.69493 4.05645 9.76337 
236 1 106.42 11.6835 6.0382 9.81602 
235 1 106.42 13.2326 3.7484 9.84795 
255 1 106.42 13.7868 7.95397 9.98059 
333 1 106.42 11.6775 3.89652 11.9554 
224 1 106.42 19.4578 5.77523 9.82641 
240 1 106.42 15.4708 5.98708 9.86388 
243 1 106.42 1.85392 7.68385 9.89695 
342 1 106.42 2.02875 9.81066 12.1201 
361 1 106.42 19.3574 11.7089 12.0131 
263 1 106.42 1.84559 12.0787 10.4594 
345 1 106.42 3.88228 7.55596 11.5896 
249 1 106.42 7.82129 8.11039 7.37238 
248 1 106.42 3.84165 10.1066 10.2825 
247 1 106.42 5.80904 8.1598 9.88524 
365 1 106.42 3.82466 12.0134 12.2052 
252 1 106.42 7.90516 9.88599 9.75319 
346 1 106.42 6.08538 9.85743 11.8093 
251 1 106.42 9.75111 7.85661 9.65334 
256 1 106.42 11.8742 9.79253 9.89002 
373 1 106.42 12.1967 11.8824 11.7568 
353 1 106.42 11.7618 7.79437 11.9322 
354 1 106.42 13.7126 9.76201 11.8722 
275 1 106.42 13.6423 11.8282 9.47818 
258 1 106.42 17.8706 9.65307 7.71555 
257 1 106.42 15.9583 7.6055 7.54991 
259 1 106.42 17.6304 7.63167 9.69385 
244 1 106.42 0.00306823 9.81788 9.85137 
260 1 106.42 16.0186 9.74678 9.40553 
279 1 106.42 17.5617 11.8331 9.90248 
264 1 106.42 -0.110884 13.742 10.0356 
265 1 106.42 3.98786 11.9463 7.64777 
267 1 106.42 5.92414 11.5582 9.45632 
268 1 106.42 4.14918 13.5497 10.0041 
266 1 106.42 5.94391 13.8073 7.82905 
287 1 106.42 5.91063 15.4798 9.82143 
289 1 106.42 8.08733 15.9084 7.88869 
272 1 106.42 7.92106 13.6944 9.59564 
271 1 106.42 10.0305 11.8659 10.0879 
369 1 106.42 8.20472 11.6672 11.7467 
277 1 106.42 15.9256 11.6748 7.64665 
276 1 106.42 11.772 13.9492 9.67854 
280 1 106.42 15.9109 13.7709 9.60209 
295 1 106.42 13.4088 15.793 9.8262 
393 1 106.42 11.6609 15.6648 12.0088 
278 1 106.42 17.9716 13.9699 7.86351 
299 1 106.42 17.7184 15.7748 9.93346 
377 1 106.42 15.8856 11.3644 11.7251 
282 1 106.42 2.04235 17.7137 7.89611 
283 1 106.42 1.97679 15.5851 9.91134 
205 1 106.42 4.13963 0.0286336 8.01408 
284 1 106.42 -0.178796 17.7168 9.90549 
305 1 106.42 3.7449 19.8608 12.0218 
285 1 106.42 3.71258 15.1536 8.01437 
286 1 106.42 5.78331 17.7055 8.22306 
288 1 106.42 3.98708 17.6988 9.82037 
291 1 106.42 10.0537 15.801 9.91241 
292 1 106.42 7.95669 17.5603 9.74738 
290 1 106.42 10.1886 17.6964 7.60541 
297 1 106.42 15.7614 15.7692 7.7916 
293 1 106.42 11.7799 15.5916 7.48457 
296 1 106.42 11.6677 17.7049 10.1447 
219 1 106.42 17.5559 19.7855 9.8021 
300 1 106.42 15.7781 17.601 9.87508 
317 1 106.42 15.8235 19.732 11.8921 
398 1 106.42 17.6493 17.6006 11.8183 
304 1 106.42 -0.204476 2.10027 13.5681 
303 1 106.42 1.87247 0.102342 13.7273 
425 1 106.42 4.11579 3.83602 15.8584 
421 1 106.42 19.5395 3.72761 15.643 
306 1 106.42 6.15135 2.09069 11.6976 
308 1 106.42 4.09552 2.10017 13.7504 
406 1 106.42 6.06525 2.02498 15.6734 
312 1 106.42 7.97643 1.99698 13.5296 
310 1 106.42 9.65151 1.96742 11.7057 
311 1 106.42 9.74064 -0.0273171 13.8742 
410 1 106.42 9.22482 2.12705 15.7817 
316 1 106.42 11.5871 2.0156 14.148 
315 1 106.42 13.5751 0.0165328 13.6391 
437 1 106.42 15.6299 4.2891 15.8837 
433 1 106.42 11.8692 4.06283 15.7467 
318 1 106.42 17.4931 2.14945 11.7477 
320 1 106.42 15.6479 1.83984 13.6368 
319 1 106.42 17.8251 -0.0380509 13.5998 
323 1 106.42 2.02093 3.85581 14.0466 
324 1 106.42 19.7304 5.64399 13.4373 
343 1 106.42 2.14785 7.79928 13.7064 
422 1 106.42 1.85027 6.03881 15.5732 
325 1 106.42 3.82488 3.90918 11.6499 
327 1 106.42 5.704 3.87707 13.6281 
328 1 106.42 3.81575 5.69338 13.7791 
332 1 106.42 8.05166 5.88465 13.4623 
329 1 106.42 7.84377 4.17994 11.7164 
330 1 106.42 9.91925 5.7934 11.5801 
331 1 106.42 9.80814 3.92091 13.705 
336 1 106.42 11.6064 5.93777 13.8369 
351 1 106.42 9.92244 8.073 13.7471 
334 1 106.42 13.4575 5.89104 11.8507 
335 1 106.42 13.9107 4.06726 13.8299 
434 1 106.42 13.7346 6.14558 15.7968 
357 1 106.42 15.7923 7.8415 11.5729 
321 1 106.42 -0.201993 3.82671 11.703 
337 1 106.42 15.4811 4.10859 11.5627 
341 1 106.42 -0.0350762 7.81472 11.6584 
339 1 106.42 17.2138 4.05175 13.7355 
338 1 106.42 17.6993 6.0075 11.7059 
340 1 106.42 15.6076 6.03139 13.3194 
359 1 106.42 17.8385 7.67627 13.5491 
438 1 106.42 17.8389 5.92593 15.6914 
363 1 106.42 1.92581 11.6782 14.1147 
445 1 106.42 4.39782 7.73063 15.8218 
442 1 106.42 2.37485 9.63175 15.8784 
344 1 106.42 0.0496115 9.81115 13.8866 
465 1 106.42 3.95911 11.6587 15.504 
348 1 106.42 3.8361 9.54084 13.7481 
347 1 106.42 5.84373 7.77747 13.7956 
352 1 106.42 8.04845 9.85191 13.7084 
349 1 106.42 7.72555 7.86567 11.8341 
350 1 106.42 9.83409 9.62638 11.7952 
450 1 106.42 9.88506 9.93485 15.7671 
453 1 106.42 11.5511 7.78706 15.8275 
356 1 106.42 11.9406 9.97556 13.8392 
355 1 106.42 13.8775 7.94078 13.7149 
454 1 106.42 14.0739 9.44086 15.9519 
358 1 106.42 17.7468 9.69432 11.5176 
360 1 106.42 15.7215 9.68881 13.4606 
379 1 106.42 17.3809 11.6464 13.6683 
362 1 106.42 1.73859 13.9266 12.0676 
368 1 106.42 3.87375 13.8334 13.9701 
364 1 106.42 19.584 13.7129 13.6375 
385 1 106.42 3.74599 15.8566 11.5977 
367 1 106.42 5.98177 11.5736 13.9724 
485 1 106.42 3.68972 16.0135 15.7257 
366 1 106.42 6.15416 13.5304 11.7127 
387 1 106.42 5.98544 15.5293 13.7068 
370 1 106.42 9.73487 13.7781 11.7187 
372 1 106.42 8.08109 13.5165 13.6246 
371 1 106.42 10.093 11.7849 13.5726 
376 1 106.42 12.0971 13.4927 13.7165 
470 1 106.42 10.2607 13.5074 15.464 
493 1 106.42 11.9945 15.6916 15.6363 
374 1 106.42 13.7965 13.8597 11.7261 
473 1 106.42 11.8361 11.743 15.8606 
375 1 106.42 13.9375 11.5223 14.0735 
395 1 106.42 13.7359 15.7519 13.478 
378 1 106.42 17.7402 13.8946 11.9107 
381 1 106.42 0.189447 15.9646 11.9611 
380 1 106.42 15.6362 13.9737 13.7167 
399 1 106.42 17.7781 15.8781 13.6375 
478 1 106.42 17.7532 13.843 15.8311 
397 1 106.42 15.6156 15.7188 11.7532 
383 1 106.42 1.8342 15.7812 13.9427 
382 1 106.42 1.90847 17.9245 11.826 
301 1 106.42 -0.0726054 -0.090892 11.555 
386 1 106.42 6.04485 17.659 12.0176 
388 1 106.42 4.02543 17.6659 13.7197 
307 1 106.42 5.7991 19.7874 13.7088 
392 1 106.42 7.78401 17.8049 13.6383 
390 1 106.42 9.33725 17.6273 11.7936 
391 1 106.42 9.96051 15.586 13.6107 
389 1 106.42 7.91432 15.7703 11.6543 
394 1 106.42 13.6895 17.7809 11.7843 
396 1 106.42 11.7076 17.6274 13.8495 
413 1 106.42 11.6449 19.789 15.7104 
494 1 106.42 13.6306 17.7379 15.5546 
384 1 106.42 19.8443 17.8619 13.8275 
400 1 106.42 15.7198 17.5245 13.6765 
402 1 106.42 1.91682 2.11524 15.7822 
2 1 106.42 1.92513 1.91836 0.196692 
404 1 106.42 19.7264 1.90344 17.9108 
423 1 106.42 1.80413 4.09085 17.5211 
21 1 106.42 0.0434761 4.1599 19.5555 
429 1 106.42 7.95265 4.24525 15.6137 
408 1 106.42 3.58289 1.84521 17.8255 
407 1 106.42 5.75075 0.0183161 17.7638 
10 1 106.42 10.0381 1.7837 -0.0268732 
409 1 106.42 7.44604 -0.0164811 15.9062 
412 1 106.42 7.94625 1.88201 17.7623 
431 1 106.42 9.53567 3.90189 17.8075 
414 1 106.42 13.9336 1.94097 15.6752 
14 1 106.42 13.599 1.80937 -0.0787382 
416 1 106.42 11.5156 2.15834 17.3743 
420 1 106.42 15.668 1.87544 17.6704 
417 1 106.42 15.8347 -0.0910926 15.5864 
418 1 106.42 17.3879 2.07892 15.4667 
18 1 106.42 17.7077 2.10042 19.6506 
419 1 106.42 17.5573 0.0116216 17.7478 
443 1 106.42 1.92974 7.86441 17.8055 
428 1 106.42 4.06649 5.93481 17.4904 
424 1 106.42 -0.0229266 6.28192 17.6393 
441 1 106.42 19.8353 7.97667 15.6508 
427 1 106.42 5.7081 3.66986 17.8276 
426 1 106.42 6.03212 5.73703 15.6431 
432 1 106.42 7.93828 5.81633 17.6923 
430 1 106.42 9.99934 5.88115 15.7553 
30 1 106.42 9.8262 5.90981 19.4915 
436 1 106.42 11.9587 6.02536 17.7775 
53 1 106.42 11.8421 7.79946 19.8935 
457 1 106.42 15.8915 7.77228 15.5542 
435 1 106.42 13.7732 3.49293 17.6258 
440 1 106.42 15.8053 6.00665 17.813 
455 1 106.42 13.938 7.89327 17.8893 
37 1 106.42 15.5889 3.89878 -0.0933524 
439 1 106.42 17.9454 3.70038 17.8089 
65 1 106.42 3.69708 12.2419 19.6111 
41 1 106.42 -0.0352461 7.74281 19.6857 
448 1 106.42 4.13798 10.0006 17.5723 
444 1 106.42 0.230792 9.83305 17.5419 
45 1 106.42 3.87384 7.98891 19.6773 
447 1 106.42 6.31572 7.96464 17.733 
449 1 106.42 8.12726 7.79739 15.2897 
446 1 106.42 6.36709 9.65513 15.7814 
452 1 106.42 7.97707 9.98891 17.7878 
49 1 106.42 7.90426 8.03036 19.9061 
451 1 106.42 9.76943 7.90562 17.9083 
456 1 106.42 11.7288 9.62115 17.7255 
460 1 106.42 15.8196 9.87553 17.6399 
458 1 106.42 17.6407 9.85256 15.6499 
477 1 106.42 15.9314 11.9184 15.7998 
61 1 106.42 0.0249136 11.5933 -0.0109654 
459 1 106.42 17.7779 7.99488 17.5877 
479 1 106.42 17.7943 11.8965 17.598 
461 1 106.42 0.0377622 11.7425 15.6866 
463 1 106.42 2.02105 11.6622 17.7929 
62 1 106.42 1.89719 13.9076 0.314438 
462 1 106.42 1.75095 13.7329 15.9883 
483 1 106.42 1.79225 15.6463 17.8433 
469 1 106.42 7.98112 11.9147 15.6298 
468 1 106.42 3.68902 13.7505 17.4866 
466 1 106.42 5.78965 13.6247 15.5501 
467 1 106.42 5.73305 11.7275 17.6674 
487 1 106.42 5.81184 15.7433 17.6034 
489 1 106.42 7.95355 15.4992 15.291 
93 1 106.42 11.8644 15.7753 -0.113133 
69 1 106.42 7.53435 11.8513 19.8792 
471 1 106.42 9.5796 12.1115 17.5318 
472 1 106.42 7.44137 13.7596 17.6318 
474 1 106.42 13.682 13.6418 15.5472 
475 1 106.42 13.884 11.6803 17.6456 
476 1 106.42 11.8389 13.804 17.5235 
495 1 106.42 13.8249 15.7172 17.6018 
97 1 106.42 15.7979 16.141 19.6834 
480 1 106.42 15.5256 13.6663 17.7263 
464 1 106.42 19.6318 13.589 17.7141 
482 1 106.42 2.08775 18.1183 15.4539 
403 1 106.42 1.72549 19.6632 17.4619 
401 1 106.42 19.3175 0.1893 15.8493 
405 1 106.42 3.94494 20.1349 15.6156 
86 1 106.42 5.77388 17.4762 19.571 
488 1 106.42 3.72027 17.872 17.6048 
486 1 106.42 5.97816 17.5611 15.5652 
90 1 106.42 9.7475 17.5363 19.3333 
490 1 106.42 9.58101 17.48 15.7259 
411 1 106.42 9.82685 19.5849 17.5284 
491 1 106.42 9.76568 15.5374 17.2178 
492 1 106.42 7.6761 17.6454 17.5671 
94 1 106.42 13.6853 17.9059 19.7053 
17 1 106.42 15.6679 0.0881037 19.8362 
415 1 106.42 13.6829 19.5949 17.7172 
496 1 106.42 11.6256 17.5569 17.5938 
497 1 106.42 15.8121 15.6939 15.8405 
481 1 106.42 19.4977 15.6858 15.6442 
499 1 106.42 17.656 15.8411 17.559 
500 1 106.42 15.6108 17.6013 17.8146 
498 1 106.42 17.7129 17.6796 15.5634 
484 1 106.42 19.8193 17.8101 17.4599 
