ITEM: TIMESTEP
74000
ITEM: NUMBER OF ATOMS
501
ITEM: BOX BOUNDS pp pp pp
0.0000000000000000e+00 1.9629018200000001e+01
0.0000000000000000e+00 1.9629018200000001e+01
0.0000000000000000e+00 1.9629018200000001e+01
ITEM: ATOMS id type mass x y z 
4 1 106.42 0.163149 2.14163 1.78852 
23 1 106.42 1.97541 3.833 1.96883 
3 1 106.42 1.9561 -0.00575144 1.86233 
102 1 106.42 2.10868 1.83229 3.69572 
8 1 106.42 4.22114 2.0655 2.02508 
6 1 106.42 5.88134 1.96376 19.4596 
12 1 106.42 7.50234 2.11907 1.74957 
31 1 106.42 10.0113 3.87041 1.84615 
110 1 106.42 9.58815 1.97793 3.83825 
10 1 106.42 10.1608 1.93194 0.0956826 
16 1 106.42 11.8954 1.37978 2.05375 
114 1 106.42 13.801 1.94125 3.86923 
37 1 106.42 15.5934 3.85634 0.128062 
20 1 106.42 15.7448 1.93921 1.76743 
118 1 106.42 17.8991 2.08334 3.99594 
39 1 106.42 17.8099 4.05322 1.9923 
18 1 106.42 17.6329 2.07488 0.0168983 
117 1 106.42 15.8625 0.173433 3.81055 
19 1 106.42 17.3835 0.207025 1.69736 
22 1 106.42 2.02804 5.61681 19.6041 
28 1 106.42 3.92567 5.98007 1.94616 
24 1 106.42 0.220328 5.79452 2.0481 
43 1 106.42 1.89025 7.51922 2.17246 
27 1 106.42 5.54642 4.19829 1.97586 
32 1 106.42 7.85265 6.03327 1.9766 
47 1 106.42 5.69089 7.7343 2.09022 
29 1 106.42 7.79537 3.95146 19.5332 
36 1 106.42 11.8122 5.82044 2.1928 
51 1 106.42 9.93539 7.77287 2.08851 
33 1 106.42 11.9683 4.07994 19.3396 
35 1 106.42 13.7865 4.1834 2.01656 
34 1 106.42 13.8364 6.22673 0.067742 
40 1 106.42 15.6929 5.90074 2.1026 
38 1 106.42 17.5969 5.77926 0.233803 
137 1 106.42 16.0657 3.87734 3.92735 
63 1 106.42 2.12189 11.9515 2.1325 
48 1 106.42 3.58565 9.47954 1.99145 
44 1 106.42 0.364407 9.75428 2.12865 
67 1 106.42 5.88482 11.7279 1.76913 
146 1 106.42 6.19707 9.53735 3.85399 
49 1 106.42 7.65621 8.1393 19.5213 
46 1 106.42 5.50952 9.68 0.198264 
52 1 106.42 8.01509 9.88871 2.09225 
50 1 106.42 9.95303 9.87952 0.00988784 
69 1 106.42 7.92966 11.6322 19.5824 
71 1 106.42 10.111 11.7526 2.15108 
53 1 106.42 11.657 7.81226 0.194723 
56 1 106.42 11.8778 9.91615 2.38462 
57 1 106.42 15.5657 7.90941 0.0213098 
55 1 106.42 13.5502 7.9224 2.19791 
60 1 106.42 15.6799 9.95433 2.12334 
54 1 106.42 13.5452 10.0904 0.200738 
59 1 106.42 17.7567 7.96481 1.72292 
79 1 106.42 17.7657 11.7315 1.92906 
157 1 106.42 15.7963 7.94355 3.84879 
158 1 106.42 17.765 9.86171 3.80693 
64 1 106.42 19.5858 13.4558 1.95911 
162 1 106.42 2.01738 13.7904 4.00239 
62 1 106.42 2.04697 13.8776 0.136367 
68 1 106.42 4.06692 13.7695 2.03347 
87 1 106.42 5.88555 15.6165 1.75765 
166 1 106.42 5.53419 14.0014 4.10225 
189 1 106.42 7.83648 15.5884 3.84524 
72 1 106.42 7.86087 13.4801 1.81695 
169 1 106.42 7.73816 11.7184 3.91549 
91 1 106.42 9.78372 15.6678 1.98744 
70 1 106.42 9.88902 13.8498 0.210004 
170 1 106.42 9.87723 13.7628 3.90608 
75 1 106.42 13.7359 12.0041 2.11106 
76 1 106.42 11.863 14.2032 2.04526 
73 1 106.42 11.8895 12.1032 0.193284 
74 1 106.42 13.9964 13.8194 0.186614 
80 1 106.42 15.9415 13.6443 1.91639 
77 1 106.42 15.6183 11.9107 19.4358 
83 1 106.42 2.10774 15.7715 1.63744 
84 1 106.42 0.0365366 17.7778 1.64563 
182 1 106.42 1.67741 17.5537 3.69913 
185 1 106.42 3.57358 15.9837 3.77171 
81 1 106.42 19.5737 15.5771 19.5993 
7 1 106.42 6.02371 19.6133 1.98474 
88 1 106.42 4.08014 17.5299 1.80518 
92 1 106.42 7.69541 17.7182 1.94862 
5 1 106.42 3.91869 19.5992 0.167982 
11 1 106.42 10.0211 19.3959 2.04715 
96 1 106.42 11.8438 17.3628 2.02464 
89 1 106.42 8.07199 15.6541 19.5824 
95 1 106.42 13.9299 15.8657 1.91132 
15 1 106.42 13.8227 19.3445 1.94004 
194 1 106.42 13.884 17.6783 3.7601 
181 1 106.42 19.5499 15.6033 3.45541 
100 1 106.42 15.8263 17.9324 1.78578 
99 1 106.42 17.4538 15.8479 1.77149 
198 1 106.42 17.6538 17.8779 3.97393 
101 1 106.42 19.5675 0.0443209 3.53592 
197 1 106.42 15.9343 15.9175 3.73511 
108 1 106.42 3.83138 2.08937 6.17046 
104 1 106.42 0.140079 1.68123 5.71507 
125 1 106.42 3.99439 4.08496 3.9816 
202 1 106.42 1.89829 1.93893 7.87885 
123 1 106.42 1.89856 3.801 5.84562 
106 1 106.42 6.02294 2.18885 3.91459 
206 1 106.42 5.86012 1.63249 7.76131 
112 1 106.42 8.12218 2.08491 5.94515 
133 1 106.42 11.8215 3.69787 4.02372 
131 1 106.42 10.0816 3.5976 5.88695 
116 1 106.42 11.9691 1.74023 6.19472 
210 1 106.42 9.74186 1.81462 8.23105 
111 1 106.42 9.90792 19.5441 5.92411 
233 1 106.42 11.869 3.74388 7.7198 
214 1 106.42 13.9229 2.01591 7.99276 
135 1 106.42 13.9859 3.76286 5.71529 
115 1 106.42 13.8555 0.0065354 5.94835 
120 1 106.42 15.7136 1.80253 5.70871 
237 1 106.42 15.9335 4.11427 7.55409 
119 1 106.42 17.6525 19.566 5.92435 
139 1 106.42 17.9581 3.80241 5.94191 
218 1 106.42 17.5674 2.16305 7.97951 
217 1 106.42 15.6385 0.0912564 7.77017 
122 1 106.42 2.16932 5.7426 3.99615 
143 1 106.42 1.96325 7.71231 5.9057 
121 1 106.42 0.118142 3.84459 3.90357 
128 1 106.42 3.95191 5.75227 6.12956 
145 1 106.42 4.12053 7.98483 4.29437 
127 1 106.42 5.59639 3.69461 6.08302 
126 1 106.42 5.88061 5.75877 4.0709 
147 1 106.42 5.82138 7.65839 6.03071 
149 1 106.42 7.86902 7.61231 3.82681 
130 1 106.42 9.92601 5.83411 4.253 
129 1 106.42 7.8891 4.06119 3.65485 
132 1 106.42 8.11555 5.82666 6.00496 
151 1 106.42 9.95588 7.84105 6.22894 
134 1 106.42 13.7441 5.76925 4.16686 
153 1 106.42 11.8529 7.90948 4.25187 
136 1 106.42 11.8597 5.76974 6.08871 
253 1 106.42 12.0293 7.79653 8.06912 
234 1 106.42 13.9652 5.73611 7.76358 
124 1 106.42 19.5327 5.83012 6.11987 
140 1 106.42 16.0935 6.04071 5.61901 
138 1 106.42 17.9502 6.07064 3.71779 
142 1 106.42 2.09239 9.73987 3.87144 
144 1 106.42 0.0500423 9.67912 6.10606 
242 1 106.42 2.05259 9.73523 7.80333 
141 1 106.42 0.0876961 7.88691 3.96361 
163 1 106.42 1.92778 11.637 5.86975 
165 1 106.42 4.48383 11.3044 3.86189 
148 1 106.42 3.99534 9.53357 6.22873 
152 1 106.42 7.87743 9.90555 5.85507 
150 1 106.42 9.80966 9.46513 4.10559 
171 1 106.42 9.82297 11.5519 6.05194 
155 1 106.42 13.8938 7.99405 6.06159 
257 1 106.42 15.6061 7.89601 7.98347 
154 1 106.42 13.8511 9.68126 4.12517 
156 1 106.42 11.8693 9.73674 6.11224 
173 1 106.42 11.8244 11.733 4.10949 
273 1 106.42 11.7543 11.6184 8.15224 
161 1 106.42 19.6325 11.6471 4.21464 
160 1 106.42 15.6341 10.091 5.98433 
159 1 106.42 17.7249 8.0588 5.67823 
179 1 106.42 17.4853 11.7671 5.69416 
241 1 106.42 0.00326413 7.65256 7.97364 
168 1 106.42 3.86092 13.5584 5.73895 
164 1 106.42 0.0279322 13.9647 5.58586 
262 1 106.42 1.69267 13.5578 7.83608 
265 1 106.42 3.92225 11.7445 7.91818 
167 1 106.42 6.11926 11.7031 5.73045 
187 1 106.42 5.6595 15.6677 6.05743 
172 1 106.42 7.72636 13.8201 5.82457 
269 1 106.42 7.85028 11.9629 7.95625 
176 1 106.42 11.6729 13.5964 5.76011 
270 1 106.42 9.73481 13.8 7.51191 
174 1 106.42 13.7711 13.9458 4.19954 
177 1 106.42 15.3533 11.9751 3.96454 
175 1 106.42 13.6875 11.6995 5.84458 
195 1 106.42 13.8268 15.6394 6.0162 
293 1 106.42 11.6199 15.4852 7.49354 
178 1 106.42 17.7943 13.4825 4.02424 
180 1 106.42 15.6702 13.8157 6.22164 
297 1 106.42 15.6686 15.7568 7.90981 
278 1 106.42 17.8749 13.5915 7.58009 
103 1 106.42 2.0674 19.4523 5.87022 
183 1 106.42 1.78281 15.6738 5.76049 
188 1 106.42 3.78414 17.3936 6.03523 
282 1 106.42 1.87668 17.7024 7.72555 
186 1 106.42 5.79583 17.2673 4.22048 
205 1 106.42 3.88959 19.4625 7.77864 
105 1 106.42 3.72966 0.0552168 3.72739 
109 1 106.42 7.64633 0.0230499 3.87273 
107 1 106.42 5.6982 0.218085 5.62825 
192 1 106.42 7.74494 17.8124 5.89153 
113 1 106.42 11.629 19.39 3.96785 
191 1 106.42 9.33745 15.7577 5.82672 
193 1 106.42 11.7317 15.6342 4.16831 
190 1 106.42 9.62474 17.4735 4.06143 
290 1 106.42 10.0425 17.7083 7.52575 
196 1 106.42 11.9739 17.7269 5.67134 
294 1 106.42 13.7189 17.6284 7.71454 
200 1 106.42 15.5226 17.5308 5.67638 
199 1 106.42 17.6781 15.8165 5.69878 
184 1 106.42 19.6114 17.7675 5.68735 
298 1 106.42 17.369 17.7001 7.73264 
281 1 106.42 19.5363 15.7936 7.67099 
203 1 106.42 1.86174 19.5595 9.40129 
208 1 106.42 3.92404 1.97571 9.89672 
302 1 106.42 1.89643 1.88696 11.704 
221 1 106.42 0.163049 4.0195 8.02425 
229 1 106.42 7.86455 3.78121 7.70638 
212 1 106.42 7.63023 1.93274 9.82163 
325 1 106.42 3.57837 3.76795 11.8912 
207 1 106.42 5.9262 0.117496 10.187 
231 1 106.42 9.90021 3.85184 9.7027 
216 1 106.42 11.7473 1.86024 9.84502 
310 1 106.42 9.80738 1.75806 11.4898 
314 1 106.42 13.8134 1.85747 11.9267 
337 1 106.42 15.507 3.81996 11.7168 
204 1 106.42 19.5413 1.71536 10.0565 
220 1 106.42 15.8928 2.02229 9.92409 
239 1 106.42 17.7565 4.07604 9.99072 
219 1 106.42 17.5635 0.0655437 9.66917 
225 1 106.42 3.79434 3.95747 8.16431 
223 1 106.42 1.6438 4.07587 10.1073 
222 1 106.42 1.87059 5.97059 7.82674 
228 1 106.42 3.7645 6.02613 9.81224 
245 1 106.42 3.93733 7.7947 8.02359 
227 1 106.42 5.80298 3.92006 9.92856 
226 1 106.42 5.97886 5.93301 7.72964 
247 1 106.42 5.86922 7.81428 9.8531 
232 1 106.42 7.68436 5.7522 9.95385 
349 1 106.42 7.72541 7.72442 12.0327 
230 1 106.42 9.86196 5.68873 7.8191 
249 1 106.42 7.96622 7.90256 7.61554 
251 1 106.42 9.67164 7.47667 9.97554 
353 1 106.42 11.6675 7.56347 11.7702 
333 1 106.42 11.9097 3.78075 11.6365 
235 1 106.42 13.6035 3.71646 9.793 
236 1 106.42 11.9046 5.80257 9.67169 
240 1 106.42 15.6408 5.7941 10.1181 
255 1 106.42 13.7481 7.71876 9.8892 
224 1 106.42 19.4236 5.93328 10.0015 
238 1 106.42 17.6308 5.81953 8.0102 
259 1 106.42 17.6386 7.86236 9.63717 
243 1 106.42 1.83953 7.80553 9.91914 
244 1 106.42 19.5231 9.8681 9.7356 
342 1 106.42 2.23294 9.8375 11.5341 
246 1 106.42 6.15033 9.86896 7.9209 
248 1 106.42 4.10887 10.0943 9.75915 
345 1 106.42 3.88887 7.9119 11.7192 
250 1 106.42 9.68588 9.64497 7.96185 
252 1 106.42 7.87895 9.63756 9.78215 
350 1 106.42 9.75354 9.66405 11.8872 
256 1 106.42 11.3823 9.51978 9.72791 
271 1 106.42 9.81894 11.7715 9.6746 
254 1 106.42 13.8622 9.90447 8.25587 
277 1 106.42 15.834 12.0075 7.94899 
260 1 106.42 15.5583 9.99897 10.0326 
354 1 106.42 13.3528 10.0332 11.6604 
261 1 106.42 19.6001 11.8393 7.79799 
258 1 106.42 17.5724 9.80389 7.91485 
263 1 106.42 1.9589 11.6278 9.79928 
362 1 106.42 1.7527 13.7001 11.523 
268 1 106.42 3.78257 13.6117 9.87938 
264 1 106.42 19.56 13.749 9.68845 
266 1 106.42 6.03305 13.7728 7.87117 
365 1 106.42 4.10017 11.9095 11.6056 
267 1 106.42 6.13274 11.8097 9.64701 
287 1 106.42 5.82755 15.7805 9.55871 
366 1 106.42 5.90135 13.8872 11.4159 
272 1 106.42 7.99636 13.8577 9.843 
276 1 106.42 11.285 13.9291 9.62706 
373 1 106.42 11.1628 12.1835 11.6236 
369 1 106.42 8.27997 11.8704 11.5491 
274 1 106.42 13.4611 13.5989 7.90809 
275 1 106.42 13.6733 12.0431 9.91996 
280 1 106.42 15.6035 13.7561 9.57322 
295 1 106.42 13.5369 15.7809 9.86666 
397 1 106.42 15.5044 15.6533 11.7829 
279 1 106.42 17.7456 11.9938 9.93561 
299 1 106.42 17.7613 15.6295 9.87069 
285 1 106.42 3.74752 15.4075 7.61718 
301 1 106.42 0.192911 19.4017 11.7969 
385 1 106.42 3.68751 15.7732 11.6746 
283 1 106.42 1.7957 15.6146 9.61093 
381 1 106.42 19.4512 15.8402 11.6028 
382 1 106.42 1.98962 17.6203 11.4608 
289 1 106.42 8.12392 16.0319 8.06964 
288 1 106.42 4.06056 17.6107 9.80192 
286 1 106.42 5.77272 17.6952 7.85812 
292 1 106.42 7.69629 17.7923 9.89609 
209 1 106.42 8.06554 19.538 7.96594 
211 1 106.42 10.0411 19.2706 9.82099 
291 1 106.42 9.77666 15.9774 9.85421 
213 1 106.42 11.7908 0.119805 7.95613 
215 1 106.42 13.9312 19.4602 9.71268 
296 1 106.42 12.0518 17.6812 9.77503 
313 1 106.42 11.9603 19.5872 11.5267 
300 1 106.42 15.6076 17.5882 9.6424 
201 1 106.42 19.5525 0.0520043 7.81167 
284 1 106.42 19.3987 17.5664 9.78474 
308 1 106.42 3.86209 2.06087 13.7187 
304 1 106.42 0.0692148 2.02061 13.9515 
402 1 106.42 1.88166 1.61927 15.6611 
306 1 106.42 6.00865 2.08437 11.8676 
406 1 106.42 6.22531 2.31678 16.0132 
329 1 106.42 8.01962 3.81397 11.7922 
405 1 106.42 4.25433 0.334842 15.588 
307 1 106.42 6.05563 0.225301 13.6494 
309 1 106.42 7.86445 0.000563452 11.811 
312 1 106.42 7.91915 1.95581 13.6971 
409 1 106.42 7.82985 0.29847 15.8123 
331 1 106.42 9.85157 3.98296 13.6308 
410 1 106.42 9.84594 2.08634 15.6928 
317 1 106.42 15.8375 0.0772481 11.7586 
316 1 106.42 11.8083 2.16974 13.6465 
335 1 106.42 13.8712 3.89296 13.723 
315 1 106.42 13.9496 19.5974 13.7591 
433 1 106.42 11.9326 3.64402 15.585 
320 1 106.42 15.9796 1.8453 13.7715 
318 1 106.42 17.8152 1.94368 11.7796 
418 1 106.42 17.7113 1.98487 15.8123 
319 1 106.42 17.952 19.5656 13.7117 
339 1 106.42 17.4223 3.85868 13.7681 
321 1 106.42 0.075576 3.86983 12.1841 
322 1 106.42 1.76808 6.15883 11.8328 
323 1 106.42 2.20011 3.93019 13.8773 
422 1 106.42 1.67224 6.00711 15.6821 
328 1 106.42 3.67068 5.86617 14.0107 
326 1 106.42 5.38438 5.807 11.926 
327 1 106.42 5.53328 3.85188 13.7721 
332 1 106.42 7.76445 5.88473 13.6786 
330 1 106.42 9.65884 5.79455 11.7688 
336 1 106.42 11.869 5.69508 13.6948 
430 1 106.42 9.92632 5.68892 15.6412 
334 1 106.42 13.6437 5.8814 11.7822 
340 1 106.42 15.7335 5.85656 13.7097 
434 1 106.42 13.4864 5.7543 15.6517 
355 1 106.42 13.3999 7.74737 13.7229 
357 1 106.42 15.6523 7.7579 11.8102 
338 1 106.42 17.8412 5.86774 12.0466 
324 1 106.42 19.2784 5.86879 13.9192 
343 1 106.42 2.05559 7.98811 13.6462 
348 1 106.42 3.93178 9.74242 13.7222 
346 1 106.42 5.91104 9.83334 11.8181 
347 1 106.42 5.69721 7.89088 13.7005 
367 1 106.42 5.76353 11.7446 13.5365 
352 1 106.42 7.76107 9.70524 13.6557 
351 1 106.42 9.94148 7.6324 13.6355 
371 1 106.42 9.60624 11.6302 13.7158 
356 1 106.42 11.5744 9.85493 13.8926 
450 1 106.42 9.54924 9.63016 15.6678 
375 1 106.42 13.6208 11.7405 13.825 
454 1 106.42 13.6892 9.78605 15.4185 
361 1 106.42 19.5871 11.7623 11.9258 
359 1 106.42 17.5391 7.96002 13.6601 
341 1 106.42 19.6153 8.01626 11.9299 
360 1 106.42 15.4976 9.68734 13.8843 
358 1 106.42 17.6173 9.69607 11.686 
344 1 106.42 0.0981337 9.70724 14.0701 
379 1 106.42 17.5616 11.5 13.5418 
363 1 106.42 1.88704 11.8896 13.551 
462 1 106.42 1.94832 13.801 15.6636 
383 1 106.42 1.76869 16.1666 13.5166 
368 1 106.42 3.77136 13.9211 13.5967 
461 1 106.42 0.126462 11.7614 15.6241 
465 1 106.42 3.8573 11.6388 15.4669 
466 1 106.42 5.75562 13.3699 15.5451 
387 1 106.42 5.79184 15.5718 13.5952 
372 1 106.42 7.66568 13.5202 13.5536 
489 1 106.42 7.43918 15.3356 15.5862 
370 1 106.42 9.8513 14.1462 11.9681 
376 1 106.42 11.6802 13.526 13.9334 
469 1 106.42 7.7307 11.6252 15.6977 
470 1 106.42 9.80411 13.7766 15.3497 
374 1 106.42 13.5061 13.6788 11.9297 
377 1 106.42 15.6909 11.7995 11.7992 
474 1 106.42 13.6666 13.7121 15.7091 
378 1 106.42 17.717 13.7804 11.9385 
364 1 106.42 0.161597 13.9107 13.8802 
380 1 106.42 15.8643 13.8397 13.6933 
305 1 106.42 3.76466 19.6138 11.8389 
481 1 106.42 19.6178 15.5741 15.747 
303 1 106.42 2.15519 0.0835005 13.6794 
482 1 106.42 2.15342 17.7039 15.544 
386 1 106.42 5.85035 17.603 11.9814 
388 1 106.42 4.22658 17.896 13.8143 
389 1 106.42 7.70992 16.0577 11.7778 
392 1 106.42 7.83784 17.8003 13.8696 
486 1 106.42 5.91468 17.8135 15.6639 
390 1 106.42 9.91902 17.6853 12.0537 
393 1 106.42 11.8621 15.8404 11.6739 
391 1 106.42 9.86968 15.7312 13.7856 
311 1 106.42 9.87595 0.356074 13.943 
396 1 106.42 11.8657 17.7848 13.7373 
395 1 106.42 13.6577 15.7975 13.7718 
413 1 106.42 11.9015 19.6793 15.72 
394 1 106.42 14.0658 17.6404 11.6351 
494 1 106.42 13.6042 17.719 15.8338 
497 1 106.42 15.7389 15.8344 15.6867 
493 1 106.42 11.7301 15.7051 15.3945 
399 1 106.42 17.5451 15.9822 13.6275 
400 1 106.42 15.8388 17.8121 13.8527 
398 1 106.42 17.4608 17.7638 11.4315 
384 1 106.42 19.608 17.7268 13.4914 
2 1 106.42 2.21435 1.90337 19.5918 
1 1 106.42 0.082082 0.139002 -0.00160622 
404 1 106.42 0.056704 2.05863 17.7002 
408 1 106.42 3.87987 1.78867 17.6223 
425 1 106.42 4.04422 3.80669 15.9801 
407 1 106.42 5.97525 0.0736171 17.7531 
427 1 106.42 5.91328 3.85595 17.8753 
9 1 106.42 7.9911 0.0954624 19.6375 
412 1 106.42 8.02608 2.05407 17.9524 
411 1 106.42 9.87795 0.284491 17.6915 
416 1 106.42 11.7941 2.04301 17.8054 
437 1 106.42 15.8005 3.8227 15.8298 
414 1 106.42 13.7349 1.80298 15.7177 
14 1 106.42 13.5379 2.00784 0.174106 
415 1 106.42 13.6552 0.347098 17.7732 
17 1 106.42 15.716 0.0528371 19.4501 
420 1 106.42 15.9759 1.90633 17.6731 
419 1 106.42 17.856 0.051643 17.5809 
417 1 106.42 15.8756 0.232145 15.8112 
41 1 106.42 0.181322 7.78094 0.159374 
21 1 106.42 0.238386 3.84613 19.4538 
423 1 106.42 1.88866 3.93182 17.328 
428 1 106.42 3.89788 5.75406 17.4183 
45 1 106.42 3.76095 7.66636 19.5197 
443 1 106.42 2.08871 7.8713 17.5671 
25 1 106.42 3.84452 3.6805 19.4099 
26 1 106.42 5.54367 5.7612 19.5013 
426 1 106.42 5.69722 5.82912 15.4025 
447 1 106.42 5.81824 7.99191 17.4736 
432 1 106.42 7.5679 5.96223 17.8225 
453 1 106.42 11.7653 7.9654 15.8264 
429 1 106.42 7.9962 3.94091 15.7582 
30 1 106.42 9.97155 6.05755 0.16048 
431 1 106.42 9.899 3.94699 17.4837 
451 1 106.42 9.65775 7.45786 17.6559 
457 1 106.42 15.6091 7.64356 15.9397 
436 1 106.42 12.0288 5.93475 17.7559 
435 1 106.42 13.8489 3.75873 17.5078 
440 1 106.42 15.714 5.81278 17.9612 
421 1 106.42 19.5913 3.94999 15.831 
439 1 106.42 17.6413 4.01748 17.8712 
424 1 106.42 19.3928 5.92026 17.8338 
438 1 106.42 17.5337 6.05295 15.9195 
441 1 106.42 19.2159 7.81819 15.8706 
42 1 106.42 1.59097 9.80473 19.5965 
445 1 106.42 3.85606 7.85941 15.6536 
442 1 106.42 2.23848 9.7924 15.7713 
448 1 106.42 3.83178 10.0245 17.7595 
444 1 106.42 0.0246652 9.92195 17.5999 
449 1 106.42 7.97259 7.54734 15.8113 
501 2 1.01 6.41904 10.0509 18.4759 
446 1 106.42 5.93501 9.81122 15.8383 
467 1 106.42 5.94885 11.4791 17.702 
452 1 106.42 8.03299 9.85261 17.8232 
455 1 106.42 13.5057 8.17839 17.7714 
456 1 106.42 11.5975 10.04 17.5665 
460 1 106.42 15.4762 9.78183 17.7552 
475 1 106.42 13.7108 11.9165 17.7413 
459 1 106.42 17.3948 7.88692 17.8904 
58 1 106.42 17.3029 9.96984 19.494 
458 1 106.42 17.4524 9.91073 15.8261 
61 1 106.42 0.0270083 11.8314 19.4371 
65 1 106.42 3.88891 12.1488 19.578 
463 1 106.42 1.81314 11.9717 17.6448 
464 1 106.42 19.5986 13.9601 17.678 
485 1 106.42 4.10357 15.6067 15.6841 
66 1 106.42 5.89576 13.621 19.5866 
468 1 106.42 3.99497 13.7013 17.4861 
472 1 106.42 7.66584 13.8018 17.4347 
85 1 106.42 4.20795 15.5736 19.6198 
473 1 106.42 11.4975 11.9174 15.9613 
471 1 106.42 9.66948 12.2129 17.7006 
491 1 106.42 9.73807 15.4328 17.7554 
477 1 106.42 15.6158 11.8573 15.6047 
476 1 106.42 11.9383 14.0695 17.4448 
495 1 106.42 13.6884 15.7852 17.7903 
480 1 106.42 15.5784 13.8176 17.4591 
479 1 106.42 17.9403 12.0557 17.2877 
478 1 106.42 17.7837 13.9884 15.4385 
78 1 106.42 17.6923 13.751 0.0092144 
401 1 106.42 0.139499 19.5319 15.5983 
403 1 106.42 2.22716 19.2159 17.5655 
483 1 106.42 1.93473 15.6741 17.7544 
82 1 106.42 1.95464 17.5903 19.4047 
484 1 106.42 19.5864 17.7853 17.4904 
86 1 106.42 6.17213 18.002 19.5273 
487 1 106.42 6.10339 15.8529 17.7709 
488 1 106.42 4.29255 17.8184 17.6039 
492 1 106.42 8.10219 17.7677 17.5082 
93 1 106.42 11.6472 15.6369 19.3693 
490 1 106.42 9.92176 17.9261 15.5534 
90 1 106.42 9.96022 17.5982 0.033255 
496 1 106.42 11.7867 17.5513 17.6727 
97 1 106.42 15.7371 15.8346 19.5053 
13 1 106.42 11.7756 19.3206 0.0976725 
94 1 106.42 13.6372 17.6839 19.6269 
500 1 106.42 15.5095 17.8407 17.4376 
498 1 106.42 17.8029 17.4476 15.7864 
98 1 106.42 17.7226 17.9406 19.3209 
499 1 106.42 17.56 15.7691 17.8924 
