ITEM: TIMESTEP
75200
ITEM: NUMBER OF ATOMS
501
ITEM: BOX BOUNDS pp pp pp
0.0000000000000000e+00 1.9629018200000001e+01
0.0000000000000000e+00 1.9629018200000001e+01
0.0000000000000000e+00 1.9629018200000001e+01
ITEM: ATOMS id type mass x y z 
4 1 106.42 0.0054181 2.01315 1.93021 
23 1 106.42 2.25813 4.07152 1.94143 
102 1 106.42 1.81383 1.92012 4.02562 
5 1 106.42 3.79547 0.00953193 -0.0476342 
121 1 106.42 0.319084 3.92755 3.87035 
105 1 106.42 4.02105 19.3518 3.81576 
8 1 106.42 3.77847 1.98078 2.15383 
12 1 106.42 7.99348 1.83209 1.89688 
7 1 106.42 5.8226 0.0645333 1.99164 
106 1 106.42 6.18837 2.14367 3.82512 
109 1 106.42 8.05842 0.0496025 3.86716 
31 1 106.42 9.95437 4.13612 2.13669 
110 1 106.42 9.54186 2.10251 3.7272 
10 1 106.42 9.97442 2.09211 0.309579 
9 1 106.42 7.96931 -0.0528933 -0.0315429 
16 1 106.42 11.5531 2.36583 2.28319 
114 1 106.42 13.9346 1.99901 3.9069 
37 1 106.42 15.6335 3.99986 -0.00455499 
20 1 106.42 15.5882 1.91158 1.97126 
14 1 106.42 13.5111 2.05362 0.131008 
117 1 106.42 15.8075 0.0616514 3.856 
19 1 106.42 17.855 0.119167 1.83744 
101 1 106.42 0.0661669 0.0847097 3.82385 
28 1 106.42 3.94974 5.92261 2.10482 
24 1 106.42 0.0593064 5.69787 1.70976 
43 1 106.42 1.91789 7.72705 1.97306 
41 1 106.42 0.020801 8.00282 -0.00383559 
27 1 106.42 6.11102 3.81818 1.62918 
47 1 106.42 6.07991 7.64034 2.12739 
32 1 106.42 7.88652 5.81687 1.79097 
51 1 106.42 9.98235 7.94059 2.07044 
53 1 106.42 11.729 8.08323 19.5375 
149 1 106.42 8.14166 7.69703 4.02164 
129 1 106.42 7.84766 4.23501 3.72359 
30 1 106.42 9.90877 5.78371 0.114247 
36 1 106.42 11.921 5.9651 1.81021 
35 1 106.42 13.7005 3.84313 2.01949 
40 1 106.42 15.5785 5.65421 1.91705 
55 1 106.42 13.9645 7.72839 1.84301 
39 1 106.42 17.5218 3.75421 1.75086 
38 1 106.42 17.5141 6.115 0.0467006 
157 1 106.42 15.8411 7.63444 3.79907 
138 1 106.42 17.6601 5.59708 3.56882 
48 1 106.42 3.75061 9.74757 1.83079 
44 1 106.42 0.0439963 9.85736 2.08374 
42 1 106.42 1.91649 9.95198 19.569 
67 1 106.42 5.95047 11.7864 2.09948 
146 1 106.42 6.05461 9.49457 4.0697 
46 1 106.42 5.91067 9.66897 0.262081 
165 1 106.42 4.03834 11.4652 3.9071 
52 1 106.42 7.84604 9.77935 1.92073 
56 1 106.42 11.8386 9.68872 1.88244 
60 1 106.42 15.5096 9.82684 1.98145 
54 1 106.42 13.6255 9.78257 0.0872931 
59 1 106.42 17.6574 7.96845 2.00218 
79 1 106.42 17.5215 11.609 1.88784 
158 1 106.42 17.5733 9.80888 3.92561 
63 1 106.42 2.05337 11.7866 2.08497 
62 1 106.42 1.86602 13.6234 19.3643 
83 1 106.42 1.75311 15.5262 1.96438 
65 1 106.42 3.83 11.5626 0.172 
68 1 106.42 3.88342 13.8087 2.10933 
87 1 106.42 5.89957 15.7202 2.10006 
85 1 106.42 3.75043 15.9308 19.6947 
71 1 106.42 9.76133 11.7947 1.96101 
72 1 106.42 7.74455 13.8214 2.09347 
91 1 106.42 9.6005 15.731 2.23238 
70 1 106.42 9.66718 13.4382 -0.020089 
170 1 106.42 9.67323 13.7517 3.89498 
75 1 106.42 13.5713 11.7636 1.99222 
76 1 106.42 11.6834 13.7182 2.11443 
73 1 106.42 11.7883 11.9061 -0.00327689 
74 1 106.42 13.6569 13.9539 19.388 
64 1 106.42 19.4377 13.5549 2.00058 
80 1 106.42 15.5394 13.7929 1.83072 
181 1 106.42 19.445 15.5861 3.7269 
78 1 106.42 17.3705 13.4331 19.601 
3 1 106.42 1.81695 19.4937 1.82764 
182 1 106.42 1.88762 17.5777 3.75094 
185 1 106.42 4.01895 15.8415 3.9844 
88 1 106.42 3.88992 17.7339 1.84692 
92 1 106.42 7.75943 17.3914 1.99957 
11 1 106.42 9.54871 19.4017 1.8279 
90 1 106.42 9.83894 17.3475 0.00137185 
96 1 106.42 11.7747 17.6684 2.2035 
95 1 106.42 13.8 15.7836 2.09947 
15 1 106.42 13.5751 0.19792 1.9273 
194 1 106.42 13.8506 17.7322 4.02241 
13 1 106.42 11.5875 0.0919215 0.205796 
84 1 106.42 19.2977 17.7029 1.83401 
100 1 106.42 15.7448 17.5955 2.06037 
99 1 106.42 17.7005 15.6044 1.70328 
197 1 106.42 15.6802 15.5717 3.82048 
108 1 106.42 3.73633 1.90441 5.69067 
104 1 106.42 0.149792 1.94898 6.11107 
123 1 106.42 1.91362 4.02116 6.00675 
206 1 106.42 5.88107 1.95634 8.19548 
127 1 106.42 6.17057 3.62485 5.99019 
107 1 106.42 5.73489 0.275081 5.69643 
112 1 106.42 8.09408 1.95073 6.10859 
131 1 106.42 10.1513 3.79959 5.81371 
229 1 106.42 7.86852 4.19899 7.92226 
133 1 106.42 11.9005 4.17669 3.87304 
116 1 106.42 12.115 1.83842 5.79213 
233 1 106.42 12.0295 3.69775 7.86373 
135 1 106.42 13.816 4.18596 5.83077 
120 1 106.42 15.7078 2.09033 6.04588 
217 1 106.42 15.8142 19.5227 7.73467 
118 1 106.42 17.7433 1.95072 3.85458 
137 1 106.42 15.7072 3.82233 3.88268 
139 1 106.42 17.5952 3.86547 5.85616 
201 1 106.42 19.3986 19.5711 7.74454 
122 1 106.42 1.84188 6.0064 4.03743 
143 1 106.42 1.89217 7.9897 6.04469 
128 1 106.42 3.7854 6.07889 5.96079 
222 1 106.42 2.11235 5.78532 8.16152 
125 1 106.42 3.97874 3.82015 4.0764 
126 1 106.42 5.71959 5.75023 4.23866 
147 1 106.42 5.81776 7.82729 5.90926 
226 1 106.42 5.79001 5.77565 7.67689 
130 1 106.42 10.1171 5.93343 3.98989 
132 1 106.42 7.73719 5.7937 5.66753 
151 1 106.42 9.97429 7.81056 5.91689 
230 1 106.42 9.68478 5.84962 7.9426 
134 1 106.42 13.7159 6.02996 4.02893 
136 1 106.42 11.9441 5.88266 6.14695 
234 1 106.42 13.7254 5.78552 7.91604 
237 1 106.42 15.7636 3.97077 7.96345 
124 1 106.42 19.4081 5.89531 5.40971 
140 1 106.42 15.7787 5.8013 5.98752 
142 1 106.42 2.13213 9.93981 4.40091 
144 1 106.42 -0.0192447 9.64563 5.85333 
141 1 106.42 19.5114 8.00384 4.00965 
163 1 106.42 1.95823 11.7738 5.99709 
161 1 106.42 0.122898 11.7513 3.83185 
261 1 106.42 0.0316812 11.7594 7.68251 
169 1 106.42 7.97814 11.9005 3.9742 
145 1 106.42 3.64671 7.87728 3.71183 
148 1 106.42 3.97717 9.93455 5.98908 
167 1 106.42 5.96069 11.6118 6.00966 
152 1 106.42 8.08768 9.57067 5.98611 
150 1 106.42 9.78205 9.96857 4.0133 
171 1 106.42 9.81407 11.8628 5.90505 
173 1 106.42 11.8128 11.6492 3.99383 
249 1 106.42 7.71494 7.63863 7.89302 
153 1 106.42 11.8867 7.77945 4.02752 
155 1 106.42 13.9341 7.69772 6.11759 
154 1 106.42 13.6815 9.76237 3.88941 
156 1 106.42 11.8761 9.78123 5.96431 
160 1 106.42 15.6368 9.63176 5.70486 
175 1 106.42 13.6841 11.7499 6.28413 
159 1 106.42 17.5317 7.97622 6.13297 
179 1 106.42 17.7393 11.551 5.91855 
162 1 106.42 1.78316 13.7147 3.84646 
168 1 106.42 3.91309 13.2894 5.69037 
262 1 106.42 1.72462 13.7606 7.62383 
183 1 106.42 1.93344 15.6731 5.71332 
285 1 106.42 3.86551 15.1999 7.92372 
166 1 106.42 5.90653 13.8861 3.97976 
189 1 106.42 7.61397 15.6875 4.06443 
187 1 106.42 6.06062 15.8965 6.26742 
172 1 106.42 7.79301 13.5844 5.79908 
266 1 106.42 5.67242 13.6501 7.75463 
176 1 106.42 11.7548 13.7183 5.83965 
270 1 106.42 9.73981 13.6566 7.84988 
293 1 106.42 11.5626 15.9326 7.75832 
174 1 106.42 13.792 13.7367 3.70371 
177 1 106.42 15.7789 11.7798 3.9479 
195 1 106.42 13.7356 15.6966 5.90491 
180 1 106.42 15.4873 13.7981 5.93884 
193 1 106.42 11.8672 15.775 3.93031 
274 1 106.42 13.2787 13.7879 7.70368 
164 1 106.42 19.4342 13.5492 5.76921 
178 1 106.42 17.3792 13.6526 3.63549 
278 1 106.42 17.6209 14.0216 7.73842 
103 1 106.42 2.1403 19.5966 5.68881 
188 1 106.42 3.84753 17.6879 5.91083 
282 1 106.42 2.04516 17.4109 7.85841 
205 1 106.42 3.9707 19.6933 7.93343 
184 1 106.42 0.231052 17.7484 5.8322 
186 1 106.42 5.97146 18.0329 3.76144 
192 1 106.42 7.85843 17.9343 5.78337 
286 1 106.42 6.04856 18.0623 7.54741 
111 1 106.42 9.86865 0.347366 5.75219 
113 1 106.42 11.7662 0.218475 3.84416 
191 1 106.42 9.94047 15.6081 5.60171 
190 1 106.42 9.95838 17.8283 3.96407 
290 1 106.42 9.83844 17.912 7.68269 
115 1 106.42 14.0097 19.4411 5.68424 
196 1 106.42 11.8221 17.7789 5.73711 
294 1 106.42 13.6979 17.7143 7.88561 
200 1 106.42 15.8768 17.528 6.05556 
198 1 106.42 17.8692 17.6187 3.7836 
119 1 106.42 17.6225 19.7048 5.72744 
199 1 106.42 17.7558 15.6062 5.57924 
298 1 106.42 17.8893 17.4748 7.69732 
281 1 106.42 19.4979 15.6553 7.70085 
202 1 106.42 1.93755 1.85804 8.04824 
302 1 106.42 1.94362 1.8678 11.966 
208 1 106.42 3.8599 2.13376 9.81801 
212 1 106.42 7.93396 2.11389 9.95974 
207 1 106.42 5.70966 19.5128 9.7685 
227 1 106.42 5.99304 3.99907 9.65397 
210 1 106.42 9.98125 1.86808 8.2703 
231 1 106.42 9.9527 3.99665 9.8497 
310 1 106.42 9.88455 1.89364 11.7007 
209 1 106.42 7.69033 0.143742 7.8959 
214 1 106.42 13.9925 2.07717 7.8316 
216 1 106.42 12.1992 1.81265 9.81671 
337 1 106.42 15.8958 3.98602 12.133 
333 1 106.42 11.7174 3.81284 11.8737 
235 1 106.42 14.0382 3.96537 10.1898 
213 1 106.42 11.8902 0.0983821 7.79465 
313 1 106.42 11.808 0.0479407 12.0658 
218 1 106.42 17.8687 2.22822 7.90744 
204 1 106.42 19.556 1.9226 9.70852 
220 1 106.42 15.8057 2.1567 9.76856 
219 1 106.42 17.5389 19.5846 9.46927 
317 1 106.42 16.0637 -0.0363394 11.8378 
318 1 106.42 17.7402 1.89416 11.8133 
221 1 106.42 19.5258 4.20779 7.52407 
225 1 106.42 4.01097 3.76587 7.6539 
223 1 106.42 1.77103 3.6786 9.64286 
228 1 106.42 4.02977 5.52683 9.68052 
243 1 106.42 1.64114 7.89353 9.92133 
247 1 106.42 5.81395 7.86156 9.65865 
232 1 106.42 7.67414 6.0866 9.76976 
251 1 106.42 9.58784 7.98747 9.68356 
330 1 106.42 9.82656 5.92026 11.5706 
253 1 106.42 11.7333 7.73088 8.01843 
236 1 106.42 11.8648 5.74952 9.744 
240 1 106.42 15.8383 5.88335 9.82022 
255 1 106.42 13.6864 7.87127 9.87033 
334 1 106.42 13.8171 5.7943 11.7554 
357 1 106.42 15.6254 8.03251 11.6991 
241 1 106.42 19.5971 7.84774 7.71397 
239 1 106.42 17.641 3.80847 10.0348 
224 1 106.42 19.6898 5.83539 9.8828 
238 1 106.42 17.7207 5.96513 7.83725 
242 1 106.42 1.8026 9.74411 8.13631 
265 1 106.42 3.9599 11.8696 7.95509 
245 1 106.42 3.63215 8.07093 8.14898 
342 1 106.42 1.94937 9.77643 11.9651 
345 1 106.42 3.84564 7.56359 11.6368 
263 1 106.42 1.79743 12.0116 9.90455 
246 1 106.42 5.95724 9.75079 7.86343 
248 1 106.42 3.84414 9.91024 9.7831 
346 1 106.42 5.75684 9.7101 11.4821 
273 1 106.42 11.6661 11.5807 8.0019 
250 1 106.42 9.8871 9.75175 7.72986 
252 1 106.42 7.80542 9.83587 9.78196 
256 1 106.42 11.7707 9.80741 10.1187 
271 1 106.42 9.58196 11.6928 9.83595 
257 1 106.42 15.7757 7.75707 8.03638 
254 1 106.42 13.6459 9.78361 7.96021 
260 1 106.42 15.7155 9.72972 9.71475 
354 1 106.42 13.6279 9.89731 11.9254 
259 1 106.42 17.6843 7.93591 10.0092 
244 1 106.42 19.6025 9.9237 9.93723 
258 1 106.42 17.6933 9.80493 7.83323 
358 1 106.42 17.5057 10.007 11.6767 
362 1 106.42 1.8066 13.9117 11.9514 
268 1 106.42 3.67539 13.8085 9.94573 
283 1 106.42 1.61588 15.5754 9.97156 
269 1 106.42 7.89372 11.7298 7.8431 
365 1 106.42 3.78651 11.845 12.0536 
267 1 106.42 5.77964 11.8641 9.96796 
366 1 106.42 5.94545 13.9205 11.5962 
272 1 106.42 8.14309 14.2643 9.72183 
276 1 106.42 11.7594 13.8861 9.74447 
373 1 106.42 11.9487 11.5711 11.9076 
369 1 106.42 7.71143 11.7768 11.6507 
275 1 106.42 13.5803 11.8333 9.63892 
280 1 106.42 15.8769 13.7343 10.0016 
377 1 106.42 15.6122 11.7196 11.613 
277 1 106.42 15.7556 11.6294 7.97533 
264 1 106.42 19.4959 13.7072 9.62589 
279 1 106.42 17.6727 11.8376 9.68807 
299 1 106.42 17.5931 15.6627 9.61239 
203 1 106.42 2.14604 19.6028 10.024 
301 1 106.42 0.0724833 19.6763 11.7106 
385 1 106.42 4.06223 15.5801 11.7934 
382 1 106.42 2.05956 17.5932 11.6986 
287 1 106.42 6.00019 15.7233 9.56353 
288 1 106.42 3.73328 17.4328 9.48525 
292 1 106.42 7.71175 17.8222 9.68253 
289 1 106.42 7.98969 15.9878 7.68608 
211 1 106.42 9.70554 19.1854 9.95573 
291 1 106.42 9.9433 16.2646 10.0328 
297 1 106.42 15.5461 15.6306 7.79939 
295 1 106.42 13.7512 15.3573 9.72268 
215 1 106.42 14.0716 0.327321 9.91719 
296 1 106.42 12.1205 17.4453 9.91238 
300 1 106.42 15.7323 17.6631 9.82978 
393 1 106.42 12.0566 15.7188 12.0045 
394 1 106.42 13.9051 17.9532 11.7898 
381 1 106.42 19.5759 15.7179 11.9848 
284 1 106.42 0.216485 17.9325 9.54822 
398 1 106.42 18.0002 17.7286 11.5954 
325 1 106.42 3.45773 4.14606 11.895 
308 1 106.42 3.94337 1.8084 13.9292 
402 1 106.42 1.92677 1.88491 16.0208 
321 1 106.42 0.0677372 3.99732 11.9439 
323 1 106.42 1.73179 3.53275 14.2469 
303 1 106.42 2.02062 19.4325 13.7293 
306 1 106.42 5.77352 2.03031 11.6473 
405 1 106.42 4.3841 19.416 15.8213 
307 1 106.42 6.16973 0.293445 13.6333 
327 1 106.42 5.93216 3.78132 13.4445 
329 1 106.42 7.86208 4.0465 11.5334 
312 1 106.42 7.90147 2.19616 13.65 
311 1 106.42 9.73219 0.0796028 13.829 
314 1 106.42 13.8826 1.78182 12.0681 
316 1 106.42 11.7676 1.90239 13.728 
335 1 106.42 13.9686 4.07436 13.8434 
433 1 106.42 11.8707 3.92035 15.8937 
414 1 106.42 14.1013 1.97265 15.4535 
304 1 106.42 19.3737 1.93022 13.513 
320 1 106.42 15.8766 2.01001 13.7799 
339 1 106.42 17.7524 4.15925 13.7012 
322 1 106.42 1.77148 5.84053 12.002 
422 1 106.42 1.80706 6.02895 15.8286 
328 1 106.42 3.65746 5.68796 13.8056 
445 1 106.42 4.28559 7.81928 15.4235 
349 1 106.42 7.74765 7.91891 11.6539 
326 1 106.42 5.86618 5.72564 11.7166 
332 1 106.42 7.85925 5.60719 13.4791 
426 1 106.42 6.03306 5.53179 15.5007 
353 1 106.42 11.8199 7.74847 11.6868 
331 1 106.42 9.86612 3.84073 13.7825 
430 1 106.42 10.1142 5.77235 15.816 
351 1 106.42 9.9259 7.50464 13.8574 
336 1 106.42 11.7736 5.49344 13.5286 
434 1 106.42 13.7686 6.16016 15.7546 
355 1 106.42 13.6305 7.8541 13.6547 
340 1 106.42 15.5944 6.27984 13.8694 
338 1 106.42 17.5684 6.00656 11.7936 
324 1 106.42 0.133807 6.06742 13.8376 
343 1 106.42 1.89147 7.83717 13.8871 
344 1 106.42 -0.0622342 9.99004 13.6119 
461 1 106.42 19.3866 11.7705 15.3993 
465 1 106.42 3.84328 11.6762 15.8104 
348 1 106.42 4.06152 9.83718 13.582 
347 1 106.42 6.00854 7.64134 13.6011 
367 1 106.42 6.01517 11.9962 13.6247 
352 1 106.42 7.7704 10.0093 13.5294 
350 1 106.42 9.72003 9.73945 12.0461 
371 1 106.42 9.69092 11.977 13.874 
356 1 106.42 11.5749 9.7073 13.7677 
450 1 106.42 9.50204 9.44246 15.61 
375 1 106.42 13.7219 11.709 13.8725 
454 1 106.42 13.5092 9.83202 16.1567 
360 1 106.42 15.3757 9.6644 13.6037 
361 1 106.42 19.5906 11.751 11.8171 
359 1 106.42 17.6281 8.02476 13.7549 
341 1 106.42 19.4925 7.96985 11.7321 
379 1 106.42 17.4819 11.6031 13.6251 
363 1 106.42 2.09127 11.6146 13.8196 
462 1 106.42 2.08704 13.6265 15.7432 
368 1 106.42 3.78958 13.7129 13.7523 
364 1 106.42 0.129226 13.8186 13.7373 
466 1 106.42 5.68625 13.9024 15.7166 
387 1 106.42 5.75596 15.8877 13.7315 
372 1 106.42 7.68212 13.9902 13.37 
489 1 106.42 7.67484 15.7702 15.4593 
485 1 106.42 3.91383 15.7572 15.6015 
370 1 106.42 9.85012 13.7965 11.7775 
376 1 106.42 11.8953 13.7538 13.594 
470 1 106.42 9.45621 13.8721 15.6188 
493 1 106.42 11.8077 15.6452 15.756 
397 1 106.42 15.9345 15.7368 11.7707 
374 1 106.42 13.7892 13.635 11.6099 
477 1 106.42 15.7946 11.8325 15.6115 
378 1 106.42 17.6929 13.6071 11.8305 
380 1 106.42 15.3872 13.5289 13.6708 
478 1 106.42 17.6393 13.5716 15.4168 
383 1 106.42 2.10543 15.7437 13.8257 
305 1 106.42 3.91289 0.0182897 11.5911 
482 1 106.42 2.10435 17.8472 15.9642 
401 1 106.42 0.144136 19.392 15.7001 
386 1 106.42 5.72842 17.7982 11.7268 
388 1 106.42 3.91636 17.7739 13.7706 
389 1 106.42 7.94747 15.8088 11.7774 
309 1 106.42 8.0327 19.4689 11.8924 
392 1 106.42 8.00686 17.8374 14.1767 
390 1 106.42 10.0449 17.7659 12.17 
391 1 106.42 9.57206 15.6841 13.6706 
490 1 106.42 10.335 17.6306 15.5844 
315 1 106.42 14.0183 19.4761 13.9141 
396 1 106.42 12.2004 17.8578 13.6653 
395 1 106.42 13.8984 15.7179 13.6293 
319 1 106.42 17.6253 19.6291 13.6583 
497 1 106.42 15.776 15.6661 15.6958 
399 1 106.42 17.722 15.5645 13.7792 
400 1 106.42 15.7977 17.3945 13.6309 
384 1 106.42 19.5733 17.553 13.8023 
2 1 106.42 1.74124 2.016 0.108755 
1 1 106.42 0.0430417 -0.12623 19.5052 
404 1 106.42 19.5706 1.87345 17.6227 
408 1 106.42 3.84452 1.71689 17.6739 
21 1 106.42 19.5646 3.99599 0.0479672 
423 1 106.42 2.00891 3.88115 17.764 
25 1 106.42 3.87155 3.88853 19.5393 
6 1 106.42 5.75369 1.94024 0.158646 
29 1 106.42 8.1196 3.91606 0.16163 
406 1 106.42 5.94695 2.02743 15.8705 
409 1 106.42 7.73796 0.131461 15.8326 
425 1 106.42 3.86495 3.66947 15.7588 
407 1 106.42 6.03192 19.5286 17.916 
427 1 106.42 6.06039 4.06495 17.8178 
410 1 106.42 9.8609 2.09741 15.9689 
412 1 106.42 8.18194 2.06898 17.8778 
411 1 106.42 9.94681 19.4108 17.5717 
429 1 106.42 7.94151 4.08126 15.788 
413 1 106.42 11.8342 0.46606 15.8604 
416 1 106.42 11.8941 2.01112 17.8399 
415 1 106.42 13.6278 19.3968 17.7913 
17 1 106.42 15.5135 19.633 19.6701 
435 1 106.42 13.8915 3.84506 17.6003 
18 1 106.42 17.6905 1.80391 19.5549 
418 1 106.42 17.7261 1.91693 15.8404 
437 1 106.42 15.7769 4.14835 15.6598 
420 1 106.42 15.4551 1.78958 17.7087 
417 1 106.42 15.9449 19.425 15.3659 
22 1 106.42 1.86716 6.068 19.0889 
45 1 106.42 3.80367 7.87681 19.6333 
428 1 106.42 4.31754 5.98253 17.4915 
26 1 106.42 5.7938 6.12556 0.0752676 
432 1 106.42 7.81926 5.809 17.6831 
431 1 106.42 10.0107 4.16933 17.8986 
451 1 106.42 9.72464 7.92152 17.8481 
449 1 106.42 7.75573 7.45656 15.3504 
33 1 106.42 11.9119 4.2352 19.6138 
34 1 106.42 13.7446 5.96973 19.4373 
457 1 106.42 15.8036 7.84951 15.8426 
436 1 106.42 11.6384 6.18859 17.6186 
440 1 106.42 15.6846 5.88399 17.5154 
421 1 106.42 19.4719 3.90445 15.7566 
439 1 106.42 17.6468 3.69661 17.6863 
424 1 106.42 19.5927 5.72649 17.7206 
438 1 106.42 17.7158 5.72876 15.7407 
443 1 106.42 2.19958 7.8514 17.4316 
442 1 106.42 1.70768 9.71859 15.6164 
448 1 106.42 3.8231 9.8864 17.9157 
49 1 106.42 7.89254 7.60459 0.10088 
69 1 106.42 7.42877 11.8527 19.5418 
469 1 106.42 7.88684 11.599 15.8016 
447 1 106.42 5.81823 8.27037 17.6804 
501 2 1.01 7.18861 10.4762 19.0901 
446 1 106.42 5.85983 9.79858 15.2303 
467 1 106.42 5.5742 11.9777 17.6841 
50 1 106.42 9.61151 9.98647 0.241127 
453 1 106.42 11.7004 7.95012 15.8577 
452 1 106.42 7.7405 9.88114 17.6722 
456 1 106.42 11.3157 9.91386 17.8899 
57 1 106.42 15.7787 8.13779 0.0261733 
455 1 106.42 13.7328 8.03724 17.6847 
460 1 106.42 15.5405 10.0303 17.4857 
441 1 106.42 19.5661 8.11028 15.7714 
444 1 106.42 19.2437 9.94693 17.6869 
459 1 106.42 17.8891 7.83396 17.8395 
58 1 106.42 17.7129 10.0701 19.4755 
458 1 106.42 17.3726 9.77293 15.6411 
481 1 106.42 0.284007 15.8768 15.7691 
61 1 106.42 0.0931987 11.8445 0.0993486 
463 1 106.42 1.76027 11.5992 17.4371 
483 1 106.42 2.20798 15.6639 17.5208 
66 1 106.42 5.76773 13.8663 19.5907 
468 1 106.42 3.7874 13.8184 17.9197 
472 1 106.42 7.87343 13.5388 17.5502 
89 1 106.42 7.85268 15.4873 19.5912 
473 1 106.42 11.7234 11.5893 15.456 
471 1 106.42 9.99006 12.0175 17.4925 
491 1 106.42 9.84469 15.7581 17.4367 
93 1 106.42 11.9348 15.7521 0.233347 
77 1 106.42 15.3256 11.8165 19.5933 
474 1 106.42 13.7666 14.0159 15.6338 
475 1 106.42 13.489 11.9897 17.4405 
476 1 106.42 11.748 13.7463 17.7303 
480 1 106.42 15.7092 13.6788 17.4644 
81 1 106.42 19.5316 15.6695 -0.0128067 
464 1 106.42 19.584 13.653 17.4864 
479 1 106.42 17.346 11.8198 17.6654 
499 1 106.42 17.6335 15.5188 17.4848 
403 1 106.42 1.8248 19.6734 17.6601 
82 1 106.42 1.87567 17.6327 0.114078 
486 1 106.42 6.15584 17.5696 16.0411 
86 1 106.42 5.94754 17.37 19.6172 
487 1 106.42 5.91424 15.7258 17.6222 
488 1 106.42 3.88703 17.5251 17.7204 
492 1 106.42 8.21852 17.6027 17.6098 
494 1 106.42 13.7512 17.7813 15.7441 
495 1 106.42 14.0069 15.8119 17.4401 
496 1 106.42 11.6378 17.7123 17.8267 
94 1 106.42 13.7761 17.49 19.6043 
500 1 106.42 15.9262 17.8894 17.5596 
419 1 106.42 17.8404 19.5707 17.4931 
484 1 106.42 0.124493 17.2951 17.8953 
97 1 106.42 15.5998 15.9018 19.5847 
498 1 106.42 17.7711 17.618 15.6989 
98 1 106.42 17.5391 17.6222 0.0940483 
