ITEM: TIMESTEP
76800
ITEM: NUMBER OF ATOMS
501
ITEM: BOX BOUNDS pp pp pp
0.0000000000000000e+00 1.9629018200000001e+01
0.0000000000000000e+00 1.9629018200000001e+01
0.0000000000000000e+00 1.9629018200000001e+01
ITEM: ATOMS id type mass x y z 
8 1 106.42 3.89067 1.95588 1.84076 
2 1 106.42 2.0071 2.06774 0.0857963 
3 1 106.42 1.64287 0.0633337 2.18929 
7 1 106.42 5.94721 19.4977 1.60311 
106 1 106.42 5.67955 1.75797 3.74622 
27 1 106.42 5.8187 3.95589 2.26054 
12 1 106.42 7.96293 2.10463 1.83565 
16 1 106.42 11.7926 1.97646 2.06693 
113 1 106.42 11.7638 0.137636 4.01125 
11 1 106.42 9.83817 0.238371 2.10811 
15 1 106.42 13.7327 0.287215 2.03368 
33 1 106.42 11.8129 3.77846 0.059779 
4 1 106.42 19.4353 1.92086 2.0065 
20 1 106.42 15.5301 2.02369 1.83179 
39 1 106.42 17.6972 3.85404 1.69294 
23 1 106.42 1.73519 4.11435 1.77528 
122 1 106.42 1.94188 6.00934 3.61123 
22 1 106.42 2.14552 6.0623 0.199753 
28 1 106.42 3.93444 5.80525 1.94668 
32 1 106.42 7.58859 6.05341 2.25654 
25 1 106.42 4.25141 4.10572 -0.050736 
31 1 106.42 9.72447 4.05906 1.74743 
130 1 106.42 9.73201 5.98846 3.99162 
51 1 106.42 9.68926 7.88725 1.90848 
35 1 106.42 13.7194 3.99557 1.95721 
137 1 106.42 15.4634 4.06786 3.94314 
36 1 106.42 11.8883 6.02597 2.08867 
134 1 106.42 13.9046 6.05337 3.54753 
121 1 106.42 19.3678 4.15318 3.70039 
40 1 106.42 15.799 5.93044 1.69391 
24 1 106.42 19.468 5.97972 1.78611 
138 1 106.42 17.4518 5.90726 3.69689 
59 1 106.42 17.4744 7.69419 1.81753 
141 1 106.42 19.4819 7.69509 3.81399 
43 1 106.42 1.83318 7.99726 1.6077 
145 1 106.42 3.83986 7.9633 4.00171 
63 1 106.42 1.75451 11.539 1.77067 
142 1 106.42 1.64521 9.62414 3.42744 
47 1 106.42 5.74553 7.9711 2.17086 
45 1 106.42 4.05941 8.04006 0.31167 
48 1 106.42 3.93652 9.97569 2.20819 
46 1 106.42 5.90417 9.78664 19.4774 
52 1 106.42 7.73689 9.85227 2.04566 
49 1 106.42 7.63254 8.01566 0.149394 
56 1 106.42 11.485 9.90599 1.85622 
150 1 106.42 9.86953 9.76967 3.75732 
501 2 1.01 7.04585 10.1949 0.629009 
55 1 106.42 13.8482 8.06546 1.7382 
60 1 106.42 15.7341 9.70806 1.97242 
75 1 106.42 13.6056 11.5913 1.8857 
154 1 106.42 13.7817 9.53113 3.87732 
77 1 106.42 15.7584 11.7165 19.4656 
153 1 106.42 11.7617 7.99973 3.65231 
61 1 106.42 19.1641 11.7173 19.5998 
44 1 106.42 19.289 9.78933 1.89935 
79 1 106.42 17.3063 11.9358 1.95196 
161 1 106.42 19.3002 11.6682 3.73756 
58 1 106.42 17.5347 9.71587 0.12483 
83 1 106.42 1.98276 15.6075 2.22927 
68 1 106.42 3.59596 13.5394 2.09891 
85 1 106.42 3.43914 15.3407 0.0116514 
65 1 106.42 3.94487 11.894 0.0149974 
67 1 106.42 5.78417 11.8671 1.95765 
72 1 106.42 7.9059 14.0182 2.12467 
66 1 106.42 5.93737 13.8523 0.308588 
69 1 106.42 7.74245 11.9363 0.165268 
71 1 106.42 9.44615 11.9176 2.10641 
91 1 106.42 9.91152 15.6215 1.92469 
76 1 106.42 11.6441 13.4367 1.84163 
89 1 106.42 7.78118 15.6783 0.144072 
80 1 106.42 15.2578 13.6652 2.02374 
95 1 106.42 13.6517 15.5946 1.71109 
193 1 106.42 11.7423 15.6603 3.82155 
64 1 106.42 19.6293 13.7134 2.0487 
99 1 106.42 17.4335 15.6064 2.12123 
178 1 106.42 17.6349 13.8099 4.02296 
182 1 106.42 2.07647 17.649 4.08793 
88 1 106.42 3.93815 17.82 2.13104 
82 1 106.42 1.97093 17.5526 0.129137 
84 1 106.42 -0.0156099 17.2529 2.32299 
5 1 106.42 3.82903 0.0412946 0.230121 
87 1 106.42 5.88586 15.7278 2.26498 
186 1 106.42 5.83536 17.7589 4.01385 
86 1 106.42 5.84651 17.4479 0.141202 
92 1 106.42 7.97579 17.8318 1.96109 
93 1 106.42 11.6415 15.4669 0.00846432 
190 1 106.42 9.87821 17.6987 3.68861 
90 1 106.42 9.75296 17.6771 0.045605 
17 1 106.42 15.7929 19.28 0.299639 
96 1 106.42 11.7457 17.8524 1.89695 
94 1 106.42 13.8119 17.9158 0.184397 
117 1 106.42 15.6783 19.3511 3.95636 
19 1 106.42 17.7992 19.3282 2.33262 
100 1 106.42 15.5925 17.3661 2.00768 
1 1 106.42 19.3507 19.5174 0.32045 
102 1 106.42 1.97169 2.19748 3.9533 
104 1 106.42 19.5631 2.22387 5.54612 
125 1 106.42 3.76107 3.91335 3.8479 
105 1 106.42 3.6909 0.165009 3.84803 
202 1 106.42 1.886 2.25498 7.44729 
205 1 106.42 3.94071 -0.060756 7.77901 
108 1 106.42 4.19988 1.7975 5.80899 
107 1 106.42 6.29229 -0.0304233 5.95688 
225 1 106.42 3.86125 3.84081 7.47777 
109 1 106.42 8.04805 0.298382 3.9653 
110 1 106.42 10.0412 2.38048 4.04752 
129 1 106.42 8.02224 3.7113 4.0697 
112 1 106.42 7.89915 2.1557 5.83973 
111 1 106.42 10.0567 0.0455755 5.94632 
209 1 106.42 8.203 0.327737 7.83629 
210 1 106.42 10.1215 2.07798 7.79919 
114 1 106.42 13.755 1.86626 4.19372 
116 1 106.42 11.7907 2.41381 5.83455 
214 1 106.42 13.8134 1.80683 7.97321 
135 1 106.42 13.8864 3.87092 6.36289 
118 1 106.42 17.664 2.06798 3.96698 
120 1 106.42 15.7893 2.02771 5.77312 
119 1 106.42 17.8425 -0.0664206 5.90543 
218 1 106.42 17.7791 1.82623 7.86811 
123 1 106.42 1.74943 4.23799 5.6096 
128 1 106.42 3.708 5.9474 5.61007 
222 1 106.42 1.81695 6.11275 7.6114 
245 1 106.42 4.02662 7.73224 7.77719 
127 1 106.42 5.76039 4.16455 5.75515 
126 1 106.42 5.90527 5.88571 4.11025 
147 1 106.42 5.88007 7.91032 5.8257 
226 1 106.42 5.74615 5.72916 7.80724 
249 1 106.42 7.85902 8.07329 7.90752 
131 1 106.42 9.71925 4.18 6.21085 
132 1 106.42 7.98635 6.08584 6.28899 
151 1 106.42 9.85698 7.93608 5.81898 
136 1 106.42 11.7103 5.99802 6.02792 
133 1 106.42 11.9694 4.33542 4.02511 
140 1 106.42 15.5314 5.79987 6.08389 
155 1 106.42 13.4688 7.59758 5.68455 
257 1 106.42 15.6542 7.7762 7.71264 
157 1 106.42 15.6572 7.79938 4.05802 
139 1 106.42 17.6405 4.1151 5.70888 
124 1 106.42 19.6733 6.12004 5.80222 
221 1 106.42 19.6871 3.80343 7.89122 
159 1 106.42 17.5861 7.6628 5.61793 
241 1 106.42 0.0460232 7.90164 8.04871 
143 1 106.42 1.85203 7.99292 5.66904 
163 1 106.42 1.76435 11.6664 5.79846 
148 1 106.42 3.79745 9.79106 5.84875 
146 1 106.42 5.63079 10.0801 4.20339 
167 1 106.42 5.69275 11.6815 6.12872 
152 1 106.42 7.66949 9.82989 5.94578 
269 1 106.42 7.81046 11.7683 7.82925 
169 1 106.42 7.9532 11.4832 4.08477 
149 1 106.42 7.67028 7.95796 4.16297 
156 1 106.42 11.6106 9.72859 5.82823 
173 1 106.42 11.6397 11.6879 3.99144 
160 1 106.42 15.6545 9.79434 6.13682 
254 1 106.42 13.6306 9.78789 7.65345 
177 1 106.42 15.481 11.5357 3.94686 
175 1 106.42 13.4505 11.5881 5.74846 
277 1 106.42 15.499 11.7276 7.60118 
158 1 106.42 17.5372 9.71759 3.9373 
144 1 106.42 19.4893 9.96692 5.79037 
165 1 106.42 3.60448 11.9022 4.20595 
162 1 106.42 1.76272 13.6586 4.08817 
262 1 106.42 2.32019 13.7679 7.91252 
183 1 106.42 2.1662 15.5501 5.87242 
181 1 106.42 0.117027 15.6415 4.03035 
281 1 106.42 0.161022 15.5016 7.80532 
166 1 106.42 5.88759 13.5127 4.31298 
168 1 106.42 4.09313 13.8514 6.23969 
170 1 106.42 9.63265 13.7379 4.14245 
171 1 106.42 9.74978 11.8063 5.88369 
172 1 106.42 7.95866 13.844 6.0857 
289 1 106.42 8.19559 15.8107 7.78421 
273 1 106.42 11.8705 12.0269 7.66188 
174 1 106.42 13.6001 13.6596 3.85024 
197 1 106.42 15.5865 15.5958 4.02752 
176 1 106.42 11.7662 13.9065 5.83686 
180 1 106.42 15.7521 13.6211 5.71358 
297 1 106.42 15.6838 15.6583 7.67754 
179 1 106.42 17.4466 11.7135 5.96196 
164 1 106.42 19.5639 13.605 5.95358 
278 1 106.42 17.4914 13.3312 7.84265 
199 1 106.42 17.5419 15.454 6.23303 
103 1 106.42 2.02884 19.6345 5.8475 
282 1 106.42 1.89446 17.6923 7.63679 
184 1 106.42 19.3767 17.2761 6.03683 
201 1 106.42 0.182186 19.5831 7.9332 
185 1 106.42 4.01699 15.7289 3.92859 
189 1 106.42 8.00479 15.8933 4.10692 
187 1 106.42 6.06529 15.6471 5.74255 
188 1 106.42 4.10495 17.9141 5.68063 
286 1 106.42 5.94466 17.4593 7.94428 
285 1 106.42 3.93841 15.9726 7.65068 
191 1 106.42 10.1081 15.9094 6.12527 
192 1 106.42 8.11444 17.8844 6.0084 
196 1 106.42 11.866 17.8122 6.11975 
213 1 106.42 12.0052 19.4841 8.11553 
194 1 106.42 13.4984 17.8527 3.83618 
195 1 106.42 13.2664 15.8949 5.9269 
115 1 106.42 13.816 19.5307 5.93228 
198 1 106.42 17.7177 17.338 4.04161 
101 1 106.42 19.5067 19.4133 4.03183 
217 1 106.42 15.9372 19.662 7.8112 
200 1 106.42 15.7278 17.7686 5.77944 
298 1 106.42 17.7628 17.7507 7.90047 
208 1 106.42 3.93845 1.92421 9.68794 
203 1 106.42 2.00904 -0.0179816 9.82798 
204 1 106.42 0.318084 1.94178 9.63279 
321 1 106.42 0.0778812 3.75587 11.5286 
206 1 106.42 5.9854 2.05689 7.74108 
306 1 106.42 6.1034 1.80499 11.6481 
309 1 106.42 7.8987 -0.0194949 11.6514 
212 1 106.42 7.72628 1.85549 9.75204 
329 1 106.42 7.92701 3.67535 11.8003 
229 1 106.42 7.91687 3.64561 8.04727 
231 1 106.42 9.93583 3.76435 9.89806 
211 1 106.42 10.1996 0.284674 9.86908 
216 1 106.42 11.8891 1.966 9.87086 
333 1 106.42 11.8713 3.99081 11.872 
313 1 106.42 11.9135 0.104579 11.7726 
237 1 106.42 15.7713 3.76912 8.01162 
220 1 106.42 15.6667 1.60413 9.77059 
318 1 106.42 17.7001 2.1084 11.6192 
301 1 106.42 0.142611 0.103068 11.7335 
223 1 106.42 1.97644 3.99135 9.61699 
224 1 106.42 19.6158 6.024 9.78542 
345 1 106.42 3.90722 7.70176 11.9082 
228 1 106.42 3.84239 5.83298 9.80476 
243 1 106.42 2.08463 7.77251 9.80477 
322 1 106.42 2.10047 5.68809 11.5906 
227 1 106.42 5.87397 3.89914 9.78789 
247 1 106.42 5.73551 7.77192 9.79369 
326 1 106.42 6.00586 5.73193 11.5508 
232 1 106.42 8.08013 5.91087 9.57594 
230 1 106.42 10.0465 6.06102 8.10424 
330 1 106.42 9.81665 5.7449 11.7768 
233 1 106.42 11.8556 4.17438 8.18452 
234 1 106.42 13.7573 5.90188 8.03311 
235 1 106.42 13.8308 3.84752 9.76993 
236 1 106.42 11.7959 5.84552 10.1589 
238 1 106.42 17.5223 5.93283 7.80916 
239 1 106.42 17.7129 4.07447 9.63219 
240 1 106.42 15.819 5.97138 9.9164 
357 1 106.42 15.8655 7.82789 11.775 
242 1 106.42 1.70827 9.97605 7.79858 
248 1 106.42 3.64785 9.75027 10.1118 
244 1 106.42 0.0499848 9.73449 9.91675 
265 1 106.42 3.6364 11.6946 7.80622 
365 1 106.42 3.97057 11.6365 11.6896 
246 1 106.42 5.36731 9.90347 8.05934 
252 1 106.42 7.57272 9.90599 9.8684 
250 1 106.42 9.74232 10.0357 7.90419 
253 1 106.42 11.748 8.04017 7.77297 
349 1 106.42 7.92315 7.96666 11.5071 
251 1 106.42 10.0244 8.10945 9.99022 
271 1 106.42 9.82168 11.6762 9.69245 
350 1 106.42 9.82027 9.92774 11.6087 
255 1 106.42 13.6368 7.90502 9.77185 
256 1 106.42 11.8205 10.0324 9.61188 
260 1 106.42 15.5709 9.81307 9.62671 
275 1 106.42 13.8137 11.7776 9.68652 
377 1 106.42 15.4333 11.726 11.7797 
354 1 106.42 13.7229 9.71425 11.6973 
259 1 106.42 17.7591 7.87884 9.5757 
258 1 106.42 17.734 9.69166 7.71819 
279 1 106.42 17.3904 11.52 9.95374 
358 1 106.42 17.522 9.64769 11.5666 
263 1 106.42 1.76992 11.7681 9.81726 
268 1 106.42 4.12826 14.1426 9.75426 
361 1 106.42 0.113024 11.9349 11.7891 
381 1 106.42 0.215297 15.4438 11.8445 
266 1 106.42 6.11925 13.6439 7.85616 
267 1 106.42 5.83037 11.8092 9.83725 
366 1 106.42 5.89524 13.9729 11.8694 
270 1 106.42 10.0605 13.9248 8.05617 
272 1 106.42 7.87635 13.5872 9.80316 
370 1 106.42 9.56181 13.9957 11.6703 
276 1 106.42 11.687 13.5955 9.96163 
274 1 106.42 13.8052 13.7364 7.88443 
374 1 106.42 13.7698 13.8227 11.8399 
261 1 106.42 19.4426 11.9677 8.12596 
280 1 106.42 15.4972 13.729 9.77169 
264 1 106.42 19.4173 13.9294 9.82229 
397 1 106.42 15.8969 15.5259 11.572 
378 1 106.42 17.5688 13.7703 11.6145 
283 1 106.42 2.18576 15.9163 9.59624 
284 1 106.42 0.31406 17.6356 9.8677 
385 1 106.42 3.90947 15.9375 11.8505 
287 1 106.42 5.83226 15.8154 9.75244 
288 1 106.42 4.0242 18.0365 10.1342 
207 1 106.42 5.90789 19.6621 9.79645 
292 1 106.42 7.85719 17.575 9.56648 
386 1 106.42 6.04743 17.7026 11.5985 
290 1 106.42 9.95061 17.8766 8.13247 
291 1 106.42 9.90966 15.7793 9.75054 
389 1 106.42 7.94352 15.911 11.8008 
215 1 106.42 13.723 19.4637 9.76184 
295 1 106.42 14.068 15.9995 10.0002 
293 1 106.42 11.9152 15.9203 8.13255 
294 1 106.42 14.0002 17.5897 7.76643 
296 1 106.42 11.6606 18.0282 9.83601 
393 1 106.42 11.7706 15.6191 11.4222 
317 1 106.42 15.5921 19.6303 11.7169 
219 1 106.42 17.9493 19.5303 9.96321 
299 1 106.42 17.9807 16.0011 9.80992 
300 1 106.42 16.0626 17.6654 9.65521 
302 1 106.42 1.98499 1.9896 11.7398 
304 1 106.42 0.0469256 2.02751 14.1703 
402 1 106.42 2.22002 1.87097 15.6675 
308 1 106.42 3.96839 1.93408 13.8494 
327 1 106.42 5.98252 3.74802 13.9321 
325 1 106.42 4.29968 3.72006 11.8731 
406 1 106.42 5.81434 1.72383 15.6337 
310 1 106.42 9.90159 2.03518 12.0585 
312 1 106.42 7.76318 1.83721 13.8194 
331 1 106.42 10.0162 4.01548 13.792 
311 1 106.42 10.2037 0.263785 13.827 
314 1 106.42 14.1202 2.25662 11.7739 
316 1 106.42 12.0098 2.05611 14.0609 
315 1 106.42 13.7902 0.307615 13.4891 
320 1 106.42 15.9373 2.06399 13.5308 
418 1 106.42 17.4729 1.93802 15.6681 
323 1 106.42 1.96031 4.24906 13.434 
324 1 106.42 0.215051 5.86108 13.7354 
343 1 106.42 2.17579 7.59576 13.8188 
441 1 106.42 0.286122 7.73123 15.5794 
328 1 106.42 4.16469 5.76942 13.6028 
445 1 106.42 4.21038 7.70312 15.8046 
347 1 106.42 6.00745 7.76419 13.5667 
449 1 106.42 7.60805 7.85087 15.5658 
353 1 106.42 11.7435 8.05597 11.838 
332 1 106.42 8.07054 5.7446 13.7291 
351 1 106.42 9.56497 8.05408 13.5036 
336 1 106.42 11.5717 6.23477 13.9142 
430 1 106.42 9.62707 6.12717 15.5985 
334 1 106.42 13.7432 6.14155 11.9004 
335 1 106.42 13.551 3.9986 13.7643 
434 1 106.42 13.7223 5.86064 15.6489 
341 1 106.42 0.155888 7.75192 11.8071 
340 1 106.42 15.7296 5.83095 13.9594 
437 1 106.42 15.7656 3.8918 15.5978 
337 1 106.42 15.861 4.10248 11.6839 
339 1 106.42 18.0937 3.94994 13.8973 
338 1 106.42 17.8928 5.87698 11.7763 
359 1 106.42 17.7164 7.89374 13.627 
438 1 106.42 17.6887 5.96364 15.5846 
342 1 106.42 1.75987 9.78425 11.9014 
442 1 106.42 2.10857 9.7775 15.5143 
348 1 106.42 3.86153 9.7965 13.6818 
346 1 106.42 5.82204 9.86403 11.832 
352 1 106.42 7.66286 9.76769 13.6352 
446 1 106.42 5.90193 9.86009 15.7309 
356 1 106.42 11.6629 9.79833 13.5717 
450 1 106.42 9.8216 9.9789 15.2629 
453 1 106.42 11.4517 7.79896 15.754 
373 1 106.42 11.7915 11.7926 11.7825 
355 1 106.42 13.8648 7.95358 13.8672 
375 1 106.42 13.6569 11.5799 13.6268 
457 1 106.42 15.603 8.11096 15.6338 
360 1 106.42 15.9659 10.0016 13.8565 
344 1 106.42 19.504 9.76943 13.5948 
458 1 106.42 17.8953 9.86323 15.7397 
363 1 106.42 1.87376 11.8805 13.686 
362 1 106.42 2.25768 13.7528 11.9388 
383 1 106.42 2.11872 15.5728 13.7883 
481 1 106.42 0.122841 15.4744 15.4998 
369 1 106.42 7.57375 11.8883 11.8203 
368 1 106.42 4.10889 13.7773 13.7717 
367 1 106.42 5.85756 11.5831 13.7504 
466 1 106.42 6.13277 13.9951 15.6891 
469 1 106.42 7.83865 12.0769 15.5793 
473 1 106.42 11.7496 11.9407 15.6827 
372 1 106.42 8.10017 13.9794 13.8172 
371 1 106.42 9.47891 11.6888 13.4414 
470 1 106.42 9.97304 13.5973 15.7274 
391 1 106.42 10.0079 15.7374 13.7982 
376 1 106.42 11.941 13.6483 13.6818 
474 1 106.42 13.6981 13.5331 15.5647 
395 1 106.42 13.9769 15.5681 13.5781 
493 1 106.42 12.0063 15.602 15.7097 
379 1 106.42 17.534 12.0191 13.9007 
364 1 106.42 19.589 13.522 13.9271 
380 1 106.42 15.7443 13.893 13.4924 
497 1 106.42 15.7627 15.6539 15.6289 
399 1 106.42 17.8655 15.54 13.6135 
382 1 106.42 1.98237 17.702 11.9222 
303 1 106.42 1.81621 0.13999 13.8823 
384 1 106.42 0.275557 17.4992 13.7817 
305 1 106.42 3.78761 19.5538 11.9185 
307 1 106.42 5.76375 19.4831 13.9881 
388 1 106.42 3.87669 17.5115 13.7892 
387 1 106.42 6.06088 15.8374 13.6214 
392 1 106.42 7.87241 17.6782 13.6365 
390 1 106.42 9.85486 17.8334 11.8915 
490 1 106.42 9.68411 17.7307 15.8408 
394 1 106.42 13.9071 17.5185 12.1449 
396 1 106.42 11.7827 17.5244 13.9034 
413 1 106.42 12.0699 19.2577 15.6963 
494 1 106.42 14.0022 17.4424 15.4111 
398 1 106.42 17.8099 17.5486 11.9613 
319 1 106.42 17.9726 19.5428 13.7561 
400 1 106.42 15.9286 17.8696 13.7552 
498 1 106.42 17.8499 17.5221 15.5253 
403 1 106.42 1.81275 0.0440568 18.1269 
6 1 106.42 6.00039 1.91023 19.6329 
408 1 106.42 3.9578 2.13507 17.8684 
412 1 106.42 7.55585 1.74053 17.6076 
427 1 106.42 5.93658 3.94086 17.5507 
10 1 106.42 9.5873 1.91797 19.5227 
13 1 106.42 11.8512 0.147142 19.3704 
409 1 106.42 8.01615 -0.0455349 15.9149 
410 1 106.42 9.86683 1.94163 15.616 
416 1 106.42 11.8029 1.92871 17.5533 
429 1 106.42 7.81375 3.72322 15.6485 
431 1 106.42 9.82674 3.89528 17.5357 
411 1 106.42 9.89971 0.102281 17.6951 
414 1 106.42 13.6601 2.07793 16.0149 
14 1 106.42 13.7651 1.73798 19.4319 
420 1 106.42 15.9074 1.64694 17.6461 
37 1 106.42 15.537 3.55921 19.3572 
404 1 106.42 19.6162 1.95525 17.7856 
18 1 106.42 17.6048 1.86466 19.5346 
421 1 106.42 0.171576 3.79269 15.8041 
439 1 106.42 17.5199 3.91606 17.4228 
21 1 106.42 19.5388 3.82349 19.4949 
401 1 106.42 19.3412 0.231115 15.9212 
425 1 106.42 4.04588 3.71804 15.7869 
422 1 106.42 2.0204 5.62474 15.8053 
423 1 106.42 2.08239 3.92573 17.9056 
26 1 106.42 6.20811 5.94248 19.5164 
426 1 106.42 6.05376 5.75914 15.7886 
428 1 106.42 3.76418 6.12666 17.8181 
447 1 106.42 6.05195 7.58492 17.5572 
29 1 106.42 7.66164 4.20117 19.6483 
30 1 106.42 9.87652 5.99835 19.5716 
432 1 106.42 7.98563 6.07743 17.5383 
436 1 106.42 11.9166 5.83553 17.6343 
433 1 106.42 11.7444 4.13093 15.6445 
435 1 106.42 13.7742 4.1053 17.6098 
34 1 106.42 13.8881 5.69954 0.16589 
455 1 106.42 13.8208 7.68325 17.7027 
38 1 106.42 17.8994 5.68811 19.4374 
440 1 106.42 16.0188 5.75658 17.6835 
424 1 106.42 0.0783445 5.92871 17.5599 
42 1 106.42 2.21535 9.88903 19.5565 
443 1 106.42 1.98279 7.99124 17.5425 
463 1 106.42 2.3293 11.782 17.8115 
465 1 106.42 4.11321 11.7359 15.6445 
448 1 106.42 4.03534 9.63547 17.3846 
452 1 106.42 7.67703 9.94494 17.5042 
467 1 106.42 5.98846 11.7826 17.6197 
50 1 106.42 9.60325 9.921 19.3188 
451 1 106.42 9.64527 8.19439 17.2164 
73 1 106.42 11.5709 11.6624 19.5274 
471 1 106.42 9.64726 11.5289 17.4186 
477 1 106.42 15.3994 11.6806 15.8483 
53 1 106.42 11.8681 8.04538 19.5443 
456 1 106.42 11.9739 9.58658 17.3268 
54 1 106.42 13.7535 9.88059 19.2118 
454 1 106.42 13.5933 9.79446 15.4543 
461 1 106.42 19.7212 11.7035 15.7519 
459 1 106.42 17.6408 8.12298 17.3409 
41 1 106.42 19.4836 7.68693 19.2381 
460 1 106.42 15.898 9.78687 17.7755 
57 1 106.42 15.8712 7.60924 19.4491 
444 1 106.42 19.6392 9.65701 17.6359 
479 1 106.42 17.6555 11.7207 17.7725 
62 1 106.42 1.81376 13.3311 0.11699 
462 1 106.42 2.05427 13.6885 15.8847 
483 1 106.42 1.7325 15.628 17.8296 
468 1 106.42 3.83643 13.4802 17.4805 
81 1 106.42 19.5422 15.4357 19.5458 
472 1 106.42 7.63305 13.9286 17.7508 
487 1 106.42 5.61561 15.4609 17.9374 
70 1 106.42 9.79744 13.7648 19.5767 
476 1 106.42 11.5565 13.7141 17.6308 
491 1 106.42 9.88001 15.8789 17.8251 
74 1 106.42 13.3831 13.6311 19.649 
475 1 106.42 13.3979 11.8103 17.611 
480 1 106.42 15.4853 13.7136 17.7662 
478 1 106.42 17.21 13.5819 16.0427 
78 1 106.42 17.696 13.7395 19.5631 
464 1 106.42 19.5584 13.547 17.6954 
499 1 106.42 17.8424 15.5608 17.6572 
97 1 106.42 15.6722 15.3429 0.0497921 
485 1 106.42 3.73463 15.9433 15.8002 
482 1 106.42 1.78317 17.5875 15.8894 
488 1 106.42 3.74207 17.4864 17.9969 
405 1 106.42 3.77538 19.7236 15.957 
407 1 106.42 5.63692 19.5297 17.6119 
486 1 106.42 5.88417 17.7341 15.6244 
492 1 106.42 7.41031 17.3367 17.7902 
489 1 106.42 8.15236 15.7732 15.7391 
9 1 106.42 7.96858 19.4536 19.5676 
496 1 106.42 11.9403 17.5312 17.6988 
415 1 106.42 13.7767 19.4144 17.6668 
495 1 106.42 13.6194 15.6724 17.8039 
98 1 106.42 17.6416 17.3405 0.0581012 
417 1 106.42 15.6259 19.3404 15.9025 
484 1 106.42 19.5132 17.8211 17.5444 
500 1 106.42 15.7505 17.2003 17.6845 
419 1 106.42 17.4738 19.3167 17.7343 
