ITEM: TIMESTEP
7700
ITEM: NUMBER OF ATOMS
501
ITEM: BOX BOUNDS pp pp pp
0.0000000000000000e+00 1.9629018200000001e+01
0.0000000000000000e+00 1.9629018200000001e+01
0.0000000000000000e+00 1.9629018200000001e+01
ITEM: ATOMS id type mass x y z 
3 1 106.42 2.12782 19.5785 1.78457 
4 1 106.42 0.000430924 2.1161 1.8963 
121 1 106.42 0.259309 3.87452 4.3081 
102 1 106.42 1.87156 1.92421 3.88574 
8 1 106.42 4.08819 2.09452 2.12572 
7 1 106.42 5.89915 0.0580948 1.98413 
6 1 106.42 5.92111 1.9701 0.0492952 
12 1 106.42 7.87094 1.89626 2.18764 
11 1 106.42 10.232 0.0590143 2.16609 
16 1 106.42 11.8154 1.89843 1.82339 
29 1 106.42 7.90143 3.6841 0.0171344 
9 1 106.42 8.00935 0.189609 0.173624 
13 1 106.42 11.9537 19.5602 19.4026 
114 1 106.42 13.7008 2.01724 4.0466 
35 1 106.42 13.6942 3.71022 2.08016 
15 1 106.42 13.712 0.206395 1.9547 
20 1 106.42 15.8345 1.82851 1.86833 
39 1 106.42 17.631 3.80073 2.05929 
23 1 106.42 1.98783 3.8187 1.90567 
122 1 106.42 1.93528 5.84859 3.64198 
43 1 106.42 1.93156 7.70144 1.69252 
28 1 106.42 3.9132 5.78518 1.82356 
141 1 106.42 0.100021 7.86756 3.53914 
27 1 106.42 5.94478 4.07359 2.02852 
149 1 106.42 7.77238 7.86456 3.89883 
26 1 106.42 5.76187 5.92165 19.5293 
126 1 106.42 5.63353 6.26699 3.77496 
31 1 106.42 9.91996 4.14198 1.87577 
32 1 106.42 7.96677 5.82373 1.4772 
30 1 106.42 9.97691 6.32671 19.6234 
51 1 106.42 9.87567 7.89298 2.02513 
130 1 106.42 9.73139 5.86329 3.78221 
33 1 106.42 12.0343 4.03962 0.116207 
36 1 106.42 11.8528 5.8645 2.07398 
34 1 106.42 13.7371 6.05558 19.463 
40 1 106.42 15.4677 6.10854 2.08683 
37 1 106.42 15.5854 3.78801 0.161174 
24 1 106.42 0.117393 5.7489 1.79526 
44 1 106.42 19.5064 9.77979 1.67848 
142 1 106.42 1.89552 9.95376 3.65158 
145 1 106.42 3.5584 8.04659 3.59856 
63 1 106.42 1.79348 11.7479 1.78576 
42 1 106.42 2.04117 9.99106 19.6036 
47 1 106.42 5.79846 7.97672 1.63021 
48 1 106.42 3.99676 9.924 1.91616 
146 1 106.42 5.81305 9.93332 4.07756 
46 1 106.42 6.05655 9.99824 19.5207 
52 1 106.42 7.91915 9.62504 1.86041 
71 1 106.42 9.50431 11.819 2.0295 
56 1 106.42 11.4831 10.2563 1.83338 
153 1 106.42 11.6176 7.88051 3.69643 
50 1 106.42 9.7174 9.65306 19.4933 
55 1 106.42 13.5666 7.86085 1.97887 
154 1 106.42 13.1216 9.78486 3.93146 
60 1 106.42 15.1933 9.63523 2.0313 
59 1 106.42 17.6797 7.70779 2.14888 
79 1 106.42 17.4065 11.5536 2.00887 
157 1 106.42 15.8589 7.74932 3.96156 
161 1 106.42 19.5055 11.9745 3.62306 
58 1 106.42 17.3381 9.70077 0.0335538 
83 1 106.42 1.96546 15.7334 1.96679 
62 1 106.42 2.04998 13.8781 0.210798 
65 1 106.42 3.76503 12.1307 0.249512 
68 1 106.42 4.1796 13.768 2.23496 
67 1 106.42 6.0154 11.69 2.07074 
72 1 106.42 7.78972 13.8437 1.8234 
173 1 106.42 11.5919 12.1292 3.90341 
70 1 106.42 9.57044 14.0413 0.092992 
75 1 106.42 13.6748 11.7515 2.02736 
76 1 106.42 11.6827 13.9334 1.91364 
95 1 106.42 13.6866 15.7755 2.2338 
74 1 106.42 13.9949 13.7884 19.5769 
73 1 106.42 11.7797 12.0442 0.0333722 
77 1 106.42 15.7572 11.7171 0.0775707 
64 1 106.42 19.5748 13.7304 2.16122 
80 1 106.42 15.7534 13.6219 2.2085 
99 1 106.42 17.688 15.7288 2.02177 
78 1 106.42 17.5232 13.791 0.21077 
182 1 106.42 1.65977 17.7752 3.72016 
81 1 106.42 19.4159 15.765 0.103788 
82 1 106.42 1.97701 17.7355 19.5889 
105 1 106.42 3.86921 19.4033 3.87791 
185 1 106.42 4.05977 15.6451 3.91419 
87 1 106.42 5.92823 16.0536 1.61489 
88 1 106.42 4.05213 17.545 1.84238 
186 1 106.42 6.05924 17.6289 3.84871 
92 1 106.42 8.02564 17.9682 1.98127 
91 1 106.42 9.72071 15.8386 1.87506 
90 1 106.42 10.1431 17.6472 0.0695399 
189 1 106.42 7.72058 15.9134 3.75701 
96 1 106.42 11.9892 17.5976 1.75584 
94 1 106.42 13.8857 17.418 0.0257524 
17 1 106.42 15.7589 19.2314 0.0623749 
19 1 106.42 17.5834 0.0627396 1.99067 
84 1 106.42 19.4871 18.0052 2.01742 
100 1 106.42 15.8394 17.5313 2.27165 
181 1 106.42 19.423 15.7073 3.95183 
97 1 106.42 15.8248 15.6002 0.1484 
98 1 106.42 17.7216 17.6113 19.6201 
101 1 106.42 19.5607 0.000639045 3.98713 
104 1 106.42 0.182744 1.93044 6.08802 
123 1 106.42 2.19404 3.80298 6.02431 
125 1 106.42 4.09139 3.72748 4.05568 
108 1 106.42 4.30404 1.79419 5.87925 
106 1 106.42 5.8244 1.67427 3.9666 
127 1 106.42 5.99738 3.95111 5.89869 
112 1 106.42 7.77361 1.97027 5.83214 
110 1 106.42 9.54953 2.24291 4.02231 
111 1 106.42 9.86734 0.118037 5.91651 
116 1 106.42 11.5526 2.00872 6.00273 
113 1 106.42 11.8729 0.0537491 4.18931 
115 1 106.42 13.6679 19.5882 6.07614 
214 1 106.42 13.7802 2.06033 7.94084 
133 1 106.42 11.7223 3.91596 3.98812 
118 1 106.42 17.8392 2.00323 3.94778 
120 1 106.42 15.6247 1.89981 5.56718 
218 1 106.42 17.5988 1.94756 7.72853 
119 1 106.42 17.7582 19.586 5.85714 
217 1 106.42 15.7221 0.0558697 7.84262 
117 1 106.42 15.714 19.5958 3.88161 
124 1 106.42 0.300333 5.58552 6.00145 
222 1 106.42 2.06287 6.09181 7.65912 
128 1 106.42 3.67246 5.93518 5.74794 
129 1 106.42 7.81257 4.09537 3.87876 
132 1 106.42 7.66888 5.94172 5.60238 
226 1 106.42 5.94703 6.00548 7.78845 
131 1 106.42 9.49948 4.07076 5.92819 
136 1 106.42 11.6601 5.74534 5.79898 
233 1 106.42 11.5861 4.21022 7.91805 
137 1 106.42 15.561 4.01021 3.86227 
135 1 106.42 13.8264 3.8298 6.05831 
237 1 106.42 15.7588 4.17066 7.93224 
134 1 106.42 13.6451 5.97988 3.90249 
140 1 106.42 15.5362 6.10296 5.85707 
155 1 106.42 13.5238 7.80708 5.82766 
257 1 106.42 15.454 7.82986 7.57623 
138 1 106.42 17.8266 5.81195 3.98156 
221 1 106.42 0.0427485 3.82332 7.95522 
139 1 106.42 17.5567 3.77062 5.92191 
159 1 106.42 17.8505 7.67022 5.64842 
241 1 106.42 0.0480623 7.78286 7.52485 
245 1 106.42 3.89042 7.96292 7.90075 
143 1 106.42 2.05084 7.83744 5.71557 
242 1 106.42 1.88215 9.88917 7.8534 
148 1 106.42 3.75321 9.90157 5.7067 
144 1 106.42 0.312854 9.8306 5.72303 
261 1 106.42 19.5893 11.8101 7.84803 
147 1 106.42 5.73966 7.97705 5.69244 
165 1 106.42 3.88971 11.7098 3.76474 
246 1 106.42 5.86517 10.0605 7.72446 
249 1 106.42 7.5661 8.15754 7.90015 
150 1 106.42 9.63366 9.84322 3.90394 
152 1 106.42 7.93392 9.98773 5.90119 
151 1 106.42 9.69569 7.73904 5.88567 
156 1 106.42 11.5036 10.0722 5.9948 
175 1 106.42 13.8525 11.4753 5.82706 
177 1 106.42 15.7185 11.3345 4.00198 
277 1 106.42 15.6629 11.4659 7.83385 
160 1 106.42 15.8417 9.58114 5.82303 
158 1 106.42 17.8308 9.6778 4.09757 
179 1 106.42 17.7376 11.6609 5.91921 
258 1 106.42 17.6268 9.5953 7.74107 
163 1 106.42 2.11223 11.7952 5.62939 
162 1 106.42 1.98184 13.7905 3.83342 
262 1 106.42 2.32598 13.7071 7.80663 
501 2 1.01 -0.00416174 13.6615 7.88197 
166 1 106.42 6.20813 13.8864 4.0737 
167 1 106.42 5.88498 12.0098 5.82198 
168 1 106.42 3.89489 14.0218 5.68373 
172 1 106.42 7.98488 13.9708 6.1058 
269 1 106.42 7.78741 11.958 7.75566 
170 1 106.42 9.8938 13.9984 3.8959 
169 1 106.42 8.02778 12.1284 3.97026 
171 1 106.42 9.98169 12.0407 6.0092 
176 1 106.42 11.9475 13.6378 6.09121 
174 1 106.42 13.6199 13.6578 4.04394 
180 1 106.42 15.673 13.4825 5.99263 
197 1 106.42 15.4511 15.7441 4.22979 
195 1 106.42 13.7122 15.6448 5.96442 
293 1 106.42 11.8104 15.7903 7.87872 
178 1 106.42 17.643 13.7996 3.97387 
164 1 106.42 0.086942 13.7625 5.92924 
183 1 106.42 1.74336 15.8669 5.62327 
103 1 106.42 2.06284 0.0709563 6.15878 
188 1 106.42 3.73419 17.369 5.71255 
184 1 106.42 0.0813886 17.8853 5.70804 
205 1 106.42 4.04313 0.0296424 8.14884 
107 1 106.42 5.86648 19.3015 5.81653 
187 1 106.42 5.99732 15.7667 5.88895 
285 1 106.42 3.59406 15.9482 7.81524 
286 1 106.42 5.5755 17.7148 7.77157 
109 1 106.42 8.1188 19.3874 4.1393 
191 1 106.42 9.77422 15.8437 5.80208 
190 1 106.42 10.1809 17.7285 3.81325 
192 1 106.42 7.88266 17.6726 6.04959 
209 1 106.42 7.64266 19.5793 8.03097 
213 1 106.42 11.7782 0.0752592 7.76831 
193 1 106.42 11.8942 15.7714 4.06635 
194 1 106.42 13.7964 17.8187 4.04364 
196 1 106.42 11.9768 17.5604 5.96531 
198 1 106.42 17.7223 17.7866 4.04461 
297 1 106.42 15.4813 15.629 7.94919 
200 1 106.42 15.7909 17.8282 6.03704 
199 1 106.42 17.5694 15.7289 5.79084 
202 1 106.42 2.27632 1.9551 7.70697 
301 1 106.42 0.181923 19.5709 11.8089 
302 1 106.42 1.82276 2.08955 11.2941 
206 1 106.42 6.01536 2.04518 7.85219 
208 1 106.42 3.89321 1.85511 9.72213 
212 1 106.42 7.88635 1.72872 9.91106 
227 1 106.42 5.85439 3.87912 9.79527 
207 1 106.42 5.69935 19.5845 9.92634 
306 1 106.42 5.95017 2.06914 11.7208 
210 1 106.42 9.59326 2.02103 7.96152 
231 1 106.42 9.85774 3.79397 10.0985 
313 1 106.42 11.739 0.505528 11.7118 
216 1 106.42 11.9014 2.10454 9.56631 
314 1 106.42 13.8432 2.1045 11.6951 
215 1 106.42 13.8757 0.0413906 9.56068 
220 1 106.42 15.635 1.95409 9.86419 
337 1 106.42 15.7732 4.06046 11.5961 
204 1 106.42 0.125015 1.68705 9.76359 
318 1 106.42 17.7934 1.9894 11.7766 
239 1 106.42 17.5913 3.9017 9.87766 
223 1 106.42 1.88322 4.07667 9.5907 
228 1 106.42 3.97296 5.86064 9.60673 
243 1 106.42 1.68497 7.60551 9.63549 
325 1 106.42 3.91993 3.83963 11.6236 
225 1 106.42 3.94457 4.15796 7.59846 
329 1 106.42 7.55578 3.97376 11.668 
229 1 106.42 7.89603 3.93345 8.20276 
230 1 106.42 9.74754 6.09713 8.01504 
232 1 106.42 7.83518 6.11112 9.8533 
330 1 106.42 9.70707 5.96632 11.758 
236 1 106.42 11.5858 5.92061 10.1081 
234 1 106.42 13.4502 6.02402 7.90487 
235 1 106.42 13.6165 3.97898 9.78112 
334 1 106.42 13.9887 5.91558 11.6776 
255 1 106.42 13.7148 7.6888 9.78284 
238 1 106.42 17.7454 5.81154 7.9107 
224 1 106.42 19.6253 5.93222 10.0156 
240 1 106.42 16.0099 6.04898 9.66499 
338 1 106.42 17.4618 5.88591 11.7381 
265 1 106.42 4.00986 11.7408 7.91084 
342 1 106.42 2.11868 9.62914 11.7249 
244 1 106.42 0.210725 9.67904 9.86884 
263 1 106.42 1.73041 11.7331 9.80008 
345 1 106.42 3.84941 7.77439 11.6285 
248 1 106.42 4.04785 9.8787 9.87315 
247 1 106.42 5.84198 8.10042 9.48379 
346 1 106.42 5.8471 9.80632 11.7877 
349 1 106.42 7.84919 7.88408 11.7186 
365 1 106.42 4.10361 11.6443 11.7347 
250 1 106.42 9.44327 9.92672 8.01102 
252 1 106.42 7.79648 9.9298 9.95746 
253 1 106.42 11.5583 7.98505 7.76543 
251 1 106.42 9.61164 8.02128 9.81947 
256 1 106.42 11.7558 9.94057 9.79361 
254 1 106.42 13.5348 9.82104 7.88964 
260 1 106.42 15.6517 9.60244 9.74979 
353 1 106.42 11.7182 7.91851 11.8923 
259 1 106.42 17.8609 7.84181 9.60911 
279 1 106.42 17.6218 11.4621 9.78303 
358 1 106.42 17.8179 9.57979 11.4984 
283 1 106.42 2.10638 15.2504 10.0349 
362 1 106.42 1.9436 13.4079 11.7755 
268 1 106.42 4.17165 13.6892 10.1858 
266 1 106.42 5.62631 13.9972 7.88971 
267 1 106.42 5.91137 11.7079 9.71285 
272 1 106.42 7.6486 13.8911 9.77423 
270 1 106.42 9.93429 13.8204 8.18668 
271 1 106.42 9.68048 11.7622 9.76481 
370 1 106.42 9.68362 13.8333 11.9316 
275 1 106.42 13.9136 11.9052 9.92977 
273 1 106.42 11.8903 11.8729 7.98733 
276 1 106.42 11.8669 13.5197 10.0064 
274 1 106.42 13.9363 13.5477 7.81401 
295 1 106.42 13.5283 15.6135 9.77198 
278 1 106.42 17.4341 13.6243 7.85555 
264 1 106.42 19.3764 13.4989 9.68452 
280 1 106.42 15.7906 13.6408 9.89289 
299 1 106.42 17.7215 15.4328 9.83188 
281 1 106.42 19.4066 15.5986 7.90382 
381 1 106.42 19.5929 15.5277 11.6301 
282 1 106.42 1.88073 17.7153 8.00821 
203 1 106.42 2.06788 19.3321 9.83191 
382 1 106.42 1.86822 17.7095 11.7894 
284 1 106.42 19.5157 17.7949 9.9823 
287 1 106.42 5.82505 15.9509 9.71463 
289 1 106.42 8.21287 15.5395 8.00219 
288 1 106.42 4.02691 17.7086 10.2036 
290 1 106.42 10.0021 17.5443 7.82841 
292 1 106.42 8.10406 17.7835 9.93199 
211 1 106.42 9.9395 0.47252 9.78406 
291 1 106.42 9.87586 15.5899 10.1135 
389 1 106.42 7.91432 15.6864 11.7889 
294 1 106.42 13.7367 17.7356 8.00453 
296 1 106.42 11.9518 17.9963 9.96452 
394 1 106.42 13.8644 17.6841 11.73 
298 1 106.42 17.6323 17.5209 8.04698 
201 1 106.42 19.5021 19.4682 7.78196 
300 1 106.42 15.7708 17.3858 9.91471 
219 1 106.42 17.5681 0.0639994 9.83946 
305 1 106.42 3.75784 0.336194 11.8156 
323 1 106.42 2.07849 3.74417 13.7214 
303 1 106.42 1.92358 0.189045 13.579 
402 1 106.42 1.96253 1.94322 15.5028 
308 1 106.42 4.23086 2.07116 13.6555 
406 1 106.42 5.97429 1.7929 15.7808 
429 1 106.42 7.58684 3.67138 15.5567 
310 1 106.42 9.64006 2.05647 11.8672 
312 1 106.42 7.66075 1.67336 13.7065 
331 1 106.42 9.6467 3.86174 13.7882 
311 1 106.42 10.1571 0.163191 13.9825 
333 1 106.42 11.8378 3.98916 11.678 
316 1 106.42 11.8987 2.25504 13.7114 
315 1 106.42 13.4745 0.0801592 13.6057 
433 1 106.42 11.954 3.9262 15.5995 
437 1 106.42 15.6961 3.8418 15.631 
317 1 106.42 15.6331 0.266751 11.9008 
304 1 106.42 0.149424 2.0772 13.6428 
320 1 106.42 15.7396 1.77219 13.911 
319 1 106.42 17.5692 19.6216 13.5977 
322 1 106.42 2.13942 5.86647 12.0339 
341 1 106.42 0.0892029 7.70617 11.8783 
324 1 106.42 0.154819 5.64573 13.8956 
343 1 106.42 2.29987 7.67488 13.8088 
441 1 106.42 0.102527 7.86907 15.6118 
326 1 106.42 5.88693 6.07061 11.7452 
327 1 106.42 5.98177 4.06789 13.5245 
328 1 106.42 4.06319 5.57716 13.9777 
332 1 106.42 7.9991 5.97021 13.7034 
351 1 106.42 9.62027 8.03336 13.882 
453 1 106.42 11.4277 7.73051 15.6813 
335 1 106.42 13.8035 3.9276 13.5693 
336 1 106.42 11.6301 5.92738 13.6723 
355 1 106.42 13.6426 7.79373 13.6545 
357 1 106.42 15.7746 7.92243 11.7513 
321 1 106.42 0.18136 4.12062 11.8854 
339 1 106.42 17.6104 3.97585 13.718 
340 1 106.42 15.5997 5.8783 13.9011 
361 1 106.42 19.4833 11.9 11.8626 
344 1 106.42 0.164151 9.79216 13.6822 
348 1 106.42 3.9493 9.49067 13.6965 
363 1 106.42 2.25851 11.6464 13.4145 
465 1 106.42 3.88877 11.7201 15.7276 
461 1 106.42 0.0998169 11.5829 15.5457 
347 1 106.42 5.97646 7.82065 13.7429 
446 1 106.42 5.88771 9.96545 15.6661 
352 1 106.42 8.00174 9.89602 13.8382 
350 1 106.42 9.73261 9.799 11.8548 
356 1 106.42 11.4388 9.63723 13.9309 
373 1 106.42 11.7025 11.6542 11.9695 
354 1 106.42 13.8127 9.77786 11.8068 
454 1 106.42 13.8556 9.35266 15.5965 
360 1 106.42 15.6003 9.65964 13.7278 
375 1 106.42 13.6687 11.567 13.9718 
377 1 106.42 15.6965 11.7092 11.883 
359 1 106.42 17.6588 7.85899 13.6659 
379 1 106.42 17.5789 11.4912 13.7037 
458 1 106.42 17.7522 9.59279 15.6018 
383 1 106.42 2.05874 15.5243 13.5016 
462 1 106.42 2.04484 13.4971 15.5339 
366 1 106.42 6.27845 13.9921 11.9327 
368 1 106.42 4.04584 13.6539 13.6901 
367 1 106.42 6.07754 11.8367 13.9052 
387 1 106.42 6.07636 15.8239 13.994 
369 1 106.42 7.72964 11.844 11.6108 
371 1 106.42 9.67544 11.8096 13.6762 
372 1 106.42 7.73517 13.8296 14.0093 
376 1 106.42 11.8993 13.6756 13.8514 
391 1 106.42 10.0658 15.6081 13.7481 
393 1 106.42 11.9828 15.7295 11.823 
374 1 106.42 13.6982 13.6184 11.8546 
474 1 106.42 13.6833 13.5761 15.7319 
395 1 106.42 13.8671 15.6599 13.6901 
380 1 106.42 15.7354 13.5592 13.7618 
497 1 106.42 15.595 15.5378 15.5799 
378 1 106.42 17.4223 13.6761 11.9507 
364 1 106.42 19.5545 13.7453 13.7312 
397 1 106.42 15.7567 15.5948 11.7698 
399 1 106.42 17.7469 15.5792 13.7537 
478 1 106.42 17.5405 13.3867 15.7737 
405 1 106.42 3.80708 0.0299431 15.5991 
482 1 106.42 1.8478 17.6099 15.6976 
384 1 106.42 0.0690898 17.3242 13.689 
388 1 106.42 3.87871 17.6434 13.8132 
385 1 106.42 4.04628 15.6251 11.9293 
386 1 106.42 6.31794 17.5937 12.009 
307 1 106.42 5.7713 19.5341 13.5528 
309 1 106.42 8.07439 19.5574 11.8486 
392 1 106.42 8.37039 17.6906 13.7521 
390 1 106.42 10.0711 17.8822 11.6817 
409 1 106.42 8.06349 19.5835 15.5922 
493 1 106.42 11.8273 15.5526 15.8523 
396 1 106.42 11.9156 17.6643 13.7564 
400 1 106.42 15.8376 17.6298 13.5723 
494 1 106.42 13.8706 17.7523 15.5326 
398 1 106.42 17.7369 17.7392 11.9382 
498 1 106.42 17.7492 17.3662 15.5814 
401 1 106.42 19.5546 19.4957 15.4537 
421 1 106.42 19.5893 3.57241 16.0082 
2 1 106.42 1.97153 1.83809 19.574 
423 1 106.42 2.14101 3.83015 17.4367 
25 1 106.42 3.96721 3.83334 19.5515 
1 1 106.42 0.0577403 0.119007 19.5135 
425 1 106.42 4.26359 3.73936 15.7272 
408 1 106.42 3.96171 1.81194 17.6844 
407 1 106.42 5.81953 0.0576177 17.542 
412 1 106.42 7.72284 2.00151 17.5496 
10 1 106.42 9.69623 2.13267 0.109547 
410 1 106.42 9.92489 2.0344 15.7837 
416 1 106.42 11.7722 2.25984 17.8764 
411 1 106.42 9.72571 0.394186 17.6705 
413 1 106.42 11.7046 0.345579 15.9316 
14 1 106.42 13.7538 2.12412 19.5756 
414 1 106.42 13.8954 1.89497 15.6079 
420 1 106.42 15.6346 1.93113 17.7497 
435 1 106.42 13.817 3.7995 17.7596 
18 1 106.42 17.764 1.75444 19.5734 
404 1 106.42 19.6248 1.55449 17.5508 
21 1 106.42 19.25 3.81919 19.3579 
418 1 106.42 17.7009 1.89708 15.7764 
439 1 106.42 17.4887 4.05501 17.636 
45 1 106.42 3.81493 7.96006 19.4489 
422 1 106.42 2.05 5.91347 15.8252 
22 1 106.42 1.95662 5.85835 19.4964 
424 1 106.42 19.583 5.70654 17.5927 
49 1 106.42 7.69391 7.90645 19.4914 
449 1 106.42 7.4844 7.75367 15.8198 
427 1 106.42 6.02748 3.88348 17.7557 
426 1 106.42 5.83421 5.84461 15.7453 
428 1 106.42 4.05936 5.96827 17.6957 
430 1 106.42 9.70246 5.7176 15.6929 
431 1 106.42 9.80898 3.92224 17.5659 
432 1 106.42 7.82922 5.7671 17.8032 
436 1 106.42 11.7942 5.97708 17.5655 
434 1 106.42 13.4776 5.93983 15.5406 
440 1 106.42 15.597 5.74582 17.4093 
455 1 106.42 13.8132 7.80148 17.5784 
41 1 106.42 19.5662 7.51231 19.4242 
457 1 106.42 15.8597 7.8401 15.6485 
38 1 106.42 17.3944 5.70403 0.376811 
438 1 106.42 17.8743 5.92229 15.5235 
459 1 106.42 17.4156 7.61307 17.8439 
442 1 106.42 2.05352 9.97577 15.8151 
443 1 106.42 1.87652 8.13472 17.5435 
448 1 106.42 3.74756 10.0423 17.7237 
445 1 106.42 3.96013 7.95441 15.9505 
447 1 106.42 5.81048 8.12366 17.9019 
452 1 106.42 7.7815 9.96418 17.5707 
450 1 106.42 9.69824 9.92947 15.8735 
451 1 106.42 9.47369 7.95796 17.65 
53 1 106.42 11.7814 8.04579 19.5972 
57 1 106.42 15.6808 7.59292 19.5638 
473 1 106.42 11.6649 11.8179 15.7104 
54 1 106.42 13.7383 9.86135 19.4689 
477 1 106.42 15.6757 11.6733 15.8496 
456 1 106.42 11.8416 9.61262 17.3115 
460 1 106.42 15.581 9.66815 17.5037 
475 1 106.42 13.6865 11.6824 17.7613 
444 1 106.42 19.4067 9.63932 17.8005 
481 1 106.42 0.24798 15.7209 15.7418 
463 1 106.42 1.68067 12.1198 17.627 
485 1 106.42 3.77077 15.5606 15.7399 
468 1 106.42 3.79313 13.6332 17.6603 
483 1 106.42 1.73332 15.6418 17.759 
467 1 106.42 5.66882 11.7058 17.7499 
466 1 106.42 5.85552 13.6969 15.6627 
66 1 106.42 5.62788 13.9425 0.156321 
472 1 106.42 7.7227 13.813 17.734 
487 1 106.42 5.90883 15.6593 17.758 
469 1 106.42 7.9783 11.8571 15.8716 
69 1 106.42 7.87828 11.7953 19.4681 
471 1 106.42 10.0017 11.7352 17.8287 
470 1 106.42 9.97577 13.8144 15.9153 
489 1 106.42 8.07958 15.6542 15.9067 
491 1 106.42 9.85604 15.5835 17.8634 
476 1 106.42 11.9943 13.9077 17.8902 
61 1 106.42 19.554 11.8701 19.6199 
464 1 106.42 19.3929 13.7157 17.6248 
480 1 106.42 15.5768 13.6454 17.6434 
479 1 106.42 17.6136 11.4828 17.5999 
499 1 106.42 17.785 15.6936 17.7008 
403 1 106.42 1.85323 19.4439 17.4538 
85 1 106.42 3.84666 15.6356 19.4886 
488 1 106.42 4.05929 17.3792 17.626 
89 1 106.42 7.70865 15.9156 19.465 
486 1 106.42 5.89701 17.8426 15.7276 
86 1 106.42 5.99726 18.1788 19.6012 
5 1 106.42 3.94369 0.137285 0.0401802 
93 1 106.42 12.056 15.6836 19.6105 
490 1 106.42 10.0472 17.5986 15.9103 
492 1 106.42 8.16491 17.8061 17.616 
417 1 106.42 15.8651 19.4186 15.8544 
495 1 106.42 13.7609 15.7813 17.6943 
496 1 106.42 11.9826 17.7571 17.4394 
415 1 106.42 13.7341 0.00277372 17.4744 
500 1 106.42 15.7791 17.4635 17.6076 
484 1 106.42 19.4576 17.8104 17.7863 
419 1 106.42 17.495 19.4357 17.713 
