ITEM: TIMESTEP
77400
ITEM: NUMBER OF ATOMS
501
ITEM: BOX BOUNDS pp pp pp
0.0000000000000000e+00 1.9629018200000001e+01
0.0000000000000000e+00 1.9629018200000001e+01
0.0000000000000000e+00 1.9629018200000001e+01
ITEM: ATOMS id type mass x y z 
2 1 106.42 2.03292 2.04362 0.209824 
5 1 106.42 3.79032 0.0336931 0.187461 
102 1 106.42 1.94964 2.11221 3.84906 
105 1 106.42 3.76212 0.189123 3.54808 
8 1 106.42 4.06452 2.33004 1.77096 
106 1 106.42 5.75484 1.65786 3.73865 
6 1 106.42 6.04707 1.93824 0.0909877 
12 1 106.42 7.8072 2.2602 1.90228 
11 1 106.42 9.93592 0.412463 2.07545 
110 1 106.42 10.0613 2.37983 3.75939 
16 1 106.42 11.913 1.84313 1.99823 
15 1 106.42 13.8172 0.146841 2.09799 
20 1 106.42 15.5711 2.15785 2.01566 
35 1 106.42 13.6828 3.70915 1.87208 
4 1 106.42 19.4412 1.88111 2.02194 
118 1 106.42 17.548 1.92025 3.75139 
18 1 106.42 17.7703 1.98974 0.117171 
23 1 106.42 1.67392 3.84169 1.83836 
122 1 106.42 1.9217 5.98384 3.55726 
22 1 106.42 1.87504 5.84775 0.0949657 
28 1 106.42 3.97433 6.04965 2.17359 
125 1 106.42 3.73475 3.98493 3.677 
27 1 106.42 5.83986 3.97114 2.31268 
32 1 106.42 7.77368 6.04046 2.12165 
29 1 106.42 7.70277 3.99504 0.092233 
31 1 106.42 9.84104 3.90792 1.69681 
36 1 106.42 11.5448 5.66613 1.95893 
134 1 106.42 13.7058 5.97469 3.50902 
133 1 106.42 11.8776 4.10211 3.84032 
34 1 106.42 13.5674 5.76427 0.184602 
39 1 106.42 17.5632 4.05945 1.816 
121 1 106.42 19.374 4.2145 3.65451 
40 1 106.42 15.7967 5.71957 1.88513 
24 1 106.42 19.5926 5.87479 1.69631 
138 1 106.42 17.3974 6.03845 3.84394 
59 1 106.42 17.6028 7.72828 1.7321 
141 1 106.42 19.4424 7.72691 3.8885 
43 1 106.42 1.93541 7.96713 1.7226 
63 1 106.42 1.66061 11.6013 1.83989 
142 1 106.42 1.64213 9.8281 3.66307 
48 1 106.42 3.67025 10.0941 2.04908 
47 1 106.42 5.64127 8.06929 2.01782 
45 1 106.42 4.14226 7.9904 0.035737 
52 1 106.42 7.77303 10.0399 1.93624 
49 1 106.42 7.56752 8.07627 0.123444 
51 1 106.42 9.65703 7.81336 1.81544 
56 1 106.42 11.4918 10.0069 1.75191 
150 1 106.42 9.61921 9.46968 3.82096 
153 1 106.42 11.5712 7.81908 3.67286 
173 1 106.42 11.3406 11.7436 3.77858 
55 1 106.42 13.7023 8.13782 1.69745 
75 1 106.42 13.7148 11.4783 1.85614 
154 1 106.42 13.6436 9.57464 3.92878 
177 1 106.42 15.5216 11.6919 3.79976 
60 1 106.42 15.7029 9.73773 1.89316 
61 1 106.42 19.4043 11.639 0.0559308 
44 1 106.42 19.1857 9.6652 1.85871 
161 1 106.42 19.4246 11.6977 3.82004 
58 1 106.42 17.5238 9.72043 19.528 
158 1 106.42 17.5502 9.72475 3.85832 
83 1 106.42 2.1406 15.6562 2.09831 
68 1 106.42 3.68907 13.5102 2.23496 
185 1 106.42 3.86432 15.5647 3.8638 
62 1 106.42 1.79484 13.4935 0.167768 
67 1 106.42 5.82216 11.8537 2.07036 
66 1 106.42 5.96423 13.7255 0.224214 
69 1 106.42 7.92087 11.9588 0.0247281 
72 1 106.42 7.9263 13.8896 2.30486 
71 1 106.42 9.622 11.9537 2.14566 
91 1 106.42 9.75273 15.7493 1.90046 
76 1 106.42 11.6376 13.6779 1.85918 
193 1 106.42 11.6291 15.6905 3.83119 
80 1 106.42 15.5364 13.5908 2.20948 
95 1 106.42 13.5353 15.6517 1.70946 
174 1 106.42 13.5166 13.9394 3.8864 
74 1 106.42 13.562 13.3579 0.182904 
97 1 106.42 15.6129 15.4275 0.143073 
79 1 106.42 17.3336 12.1349 1.87684 
64 1 106.42 19.5805 13.6653 2.23926 
99 1 106.42 17.5406 15.5677 2.14363 
78 1 106.42 17.6744 13.8175 0.0781144 
3 1 106.42 1.68911 19.5004 2.07463 
88 1 106.42 3.86839 17.8884 2.08758 
82 1 106.42 1.76734 17.6447 0.268467 
7 1 106.42 6.11975 19.4169 1.99988 
89 1 106.42 7.78531 15.8782 0.160015 
87 1 106.42 6.11022 15.7101 2.23102 
86 1 106.42 5.69945 17.5276 0.282832 
92 1 106.42 7.87325 17.7892 2.19321 
190 1 106.42 9.94205 17.6762 3.71943 
96 1 106.42 11.7022 17.6297 1.8447 
94 1 106.42 13.6274 17.6836 0.0666182 
100 1 106.42 15.446 17.3466 2.05258 
194 1 106.42 13.3295 17.788 3.72033 
84 1 106.42 19.5063 17.4429 2.11008 
17 1 106.42 16.1481 19.3763 0.0784747 
19 1 106.42 17.5291 19.2715 2.25125 
1 1 106.42 19.5478 19.5993 0.383287 
98 1 106.42 17.8396 17.2744 0.226767 
202 1 106.42 1.96003 2.42243 7.35323 
103 1 106.42 1.98191 0.178512 5.65484 
108 1 106.42 4.11087 1.89309 5.96478 
206 1 106.42 5.88427 1.96919 7.5858 
113 1 106.42 11.7065 0.0824231 4.20599 
109 1 106.42 8.11406 0.329864 3.91059 
129 1 106.42 7.93125 3.90619 3.81056 
112 1 106.42 7.92549 2.09253 5.81089 
209 1 106.42 8.20564 0.130641 7.86654 
210 1 106.42 10.11 2.18781 7.7882 
114 1 106.42 13.5843 2.09718 4.06363 
116 1 106.42 11.8252 2.28403 6.09746 
135 1 106.42 13.859 3.91326 6.22781 
104 1 106.42 19.4759 2.01014 5.56906 
120 1 106.42 15.7023 1.8755 5.75988 
217 1 106.42 15.8329 0.0785615 7.76568 
225 1 106.42 3.73299 4.16863 7.89855 
123 1 106.42 1.56281 4.03558 5.37281 
128 1 106.42 3.82031 5.84259 5.64346 
222 1 106.42 1.96592 6.03881 7.56171 
124 1 106.42 0.150955 5.96398 5.94634 
245 1 106.42 3.99495 7.76856 7.68735 
127 1 106.42 5.64207 4.0982 5.7902 
126 1 106.42 6.1813 5.9962 4.1799 
130 1 106.42 9.61899 5.82754 4.02437 
131 1 106.42 9.82944 4.30514 6.03162 
132 1 106.42 7.78395 6.18804 6.29573 
136 1 106.42 11.7276 5.77688 5.90299 
137 1 106.42 15.5769 3.91274 4.0182 
140 1 106.42 15.5273 5.94742 5.85689 
155 1 106.42 13.5392 7.69183 5.6517 
257 1 106.42 15.5924 7.84205 7.78268 
139 1 106.42 17.7011 4.13044 6.03443 
159 1 106.42 17.6843 7.72041 5.79917 
238 1 106.42 17.5868 5.89347 7.64437 
145 1 106.42 3.86063 7.93277 4.05612 
143 1 106.42 1.64741 8.17084 5.44386 
163 1 106.42 1.76893 11.7324 5.63331 
148 1 106.42 3.52518 9.7485 5.96908 
165 1 106.42 3.88339 11.7272 4.30217 
242 1 106.42 1.75366 9.6881 7.75622 
265 1 106.42 3.68808 11.6029 7.70304 
147 1 106.42 5.76216 7.96434 5.91016 
146 1 106.42 5.61406 10.0375 4.23258 
152 1 106.42 7.5879 9.98102 6.10365 
149 1 106.42 7.64677 7.92942 4.19908 
151 1 106.42 9.67549 8.15164 5.94594 
169 1 106.42 7.79919 11.7909 4.15615 
156 1 106.42 11.5388 9.8662 5.87383 
171 1 106.42 9.72921 11.7374 6.02949 
250 1 106.42 9.6775 9.88419 7.76929 
253 1 106.42 11.7548 7.91724 7.81558 
157 1 106.42 15.5222 7.92847 3.95811 
254 1 106.42 13.6912 10.0177 7.81284 
175 1 106.42 13.4604 11.5763 5.64437 
277 1 106.42 15.504 11.8139 7.81894 
160 1 106.42 15.7585 9.7513 5.88528 
144 1 106.42 19.5555 9.84787 5.95834 
179 1 106.42 17.6138 11.5635 5.72177 
258 1 106.42 17.7151 9.73634 7.58327 
162 1 106.42 1.65876 13.6315 4.17535 
183 1 106.42 2.08854 15.7003 5.94949 
181 1 106.42 0.0727951 15.4782 4.03627 
167 1 106.42 5.65426 11.8404 6.36389 
166 1 106.42 5.88455 13.6658 4.09839 
168 1 106.42 3.98274 13.6037 6.37777 
187 1 106.42 6.30057 15.7601 5.74859 
266 1 106.42 6.04357 13.902 7.83438 
170 1 106.42 9.79516 13.8051 4.15492 
172 1 106.42 8.00758 13.7479 5.88802 
176 1 106.42 11.6634 13.8651 5.89355 
273 1 106.42 11.9485 11.9378 7.78521 
197 1 106.42 15.4585 15.6482 4.01522 
180 1 106.42 15.4534 13.7907 5.92132 
274 1 106.42 13.6907 13.7579 7.70213 
178 1 106.42 17.775 13.7307 4.10498 
164 1 106.42 19.632 13.6731 6.25254 
199 1 106.42 17.6731 15.493 6.17712 
182 1 106.42 1.82969 17.633 4.31252 
282 1 106.42 1.84203 17.8146 7.7846 
186 1 106.42 5.98025 17.7754 4.00711 
205 1 106.42 4.16155 19.368 7.82169 
107 1 106.42 6.17546 19.3754 5.98484 
188 1 106.42 3.95139 17.9922 5.76954 
285 1 106.42 4.01339 16.1447 7.67413 
111 1 106.42 9.94401 19.5343 5.84561 
189 1 106.42 8.2814 15.7845 3.92327 
191 1 106.42 10.0224 15.9835 6.13779 
192 1 106.42 8.06812 17.7061 6.13845 
117 1 106.42 15.6801 0.0292462 3.89216 
297 1 106.42 15.6925 15.7313 7.97383 
196 1 106.42 11.8639 17.723 5.97274 
195 1 106.42 13.5737 15.736 5.90247 
115 1 106.42 13.7454 19.6159 5.95635 
200 1 106.42 15.5415 17.7012 5.9282 
294 1 106.42 13.8572 17.6643 7.81528 
119 1 106.42 17.8406 19.4175 5.93571 
184 1 106.42 19.3739 17.3609 6.05226 
198 1 106.42 17.7129 17.2146 4.1864 
101 1 106.42 0.0316625 19.5186 4.00918 
221 1 106.42 19.5942 3.84597 7.86116 
204 1 106.42 0.354094 1.89387 9.68508 
321 1 106.42 0.124493 3.75134 11.6121 
302 1 106.42 2.08483 2.03735 11.6129 
208 1 106.42 3.9599 1.76463 9.45034 
212 1 106.42 7.81052 2.01603 9.74345 
229 1 106.42 7.76587 3.77374 7.99587 
227 1 106.42 5.81764 3.82489 9.75061 
207 1 106.42 5.9395 0.142272 9.71565 
231 1 106.42 9.85447 3.72944 10.088 
211 1 106.42 9.91388 0.357998 9.94726 
214 1 106.42 13.7521 1.84492 8.11125 
216 1 106.42 11.9638 2.08602 9.82862 
220 1 106.42 15.7158 1.74651 9.71586 
235 1 106.42 13.8791 3.90178 9.67128 
317 1 106.42 15.7646 0.0303439 11.7441 
314 1 106.42 13.8461 2.15077 11.599 
218 1 106.42 17.9292 1.89303 8.05895 
237 1 106.42 15.8994 3.66973 7.83334 
318 1 106.42 17.8902 2.04819 11.7022 
223 1 106.42 2.06234 4.0105 9.63759 
224 1 106.42 0.047975 6.12181 9.82742 
228 1 106.42 3.96134 5.87065 9.6223 
243 1 106.42 1.9914 7.80329 9.56019 
322 1 106.42 2.1787 5.73905 11.529 
341 1 106.42 0.29986 7.78733 11.7704 
226 1 106.42 6.04849 5.75654 7.95542 
247 1 106.42 5.93969 7.87036 9.85879 
326 1 106.42 6.18763 5.74068 11.6036 
232 1 106.42 7.99547 5.82512 9.60319 
230 1 106.42 9.99101 6.11853 8.27473 
233 1 106.42 11.8509 4.22933 7.99682 
234 1 106.42 13.7134 5.96255 7.79673 
236 1 106.42 11.8703 6.03158 10.1209 
239 1 106.42 17.5254 3.857 9.68953 
240 1 106.42 15.59 6.04163 10.0289 
337 1 106.42 15.8678 4.11828 11.5832 
338 1 106.42 18.1818 5.5424 11.7402 
241 1 106.42 0.0653193 8.06458 7.93282 
248 1 106.42 3.80077 9.69714 9.9313 
244 1 106.42 0.0263236 9.77549 9.97957 
263 1 106.42 1.92132 11.6043 9.77014 
365 1 106.42 4.01416 11.8492 11.7852 
246 1 106.42 5.46842 9.83392 8.07668 
252 1 106.42 7.68493 9.79234 9.86492 
349 1 106.42 7.67559 7.80234 11.5799 
267 1 106.42 5.80535 11.7653 9.7381 
346 1 106.42 5.85668 9.77128 11.6563 
249 1 106.42 7.87505 8.25818 8.13256 
251 1 106.42 10.0003 7.88675 9.85512 
271 1 106.42 9.74236 11.8522 9.47659 
350 1 106.42 9.80609 10.0251 11.5066 
255 1 106.42 13.6561 7.82651 9.6935 
256 1 106.42 11.8709 9.9116 9.6083 
260 1 106.42 15.5426 9.69201 9.65343 
354 1 106.42 13.6143 9.9077 11.7437 
259 1 106.42 17.5193 7.86754 9.61347 
279 1 106.42 17.362 11.7062 10.1216 
358 1 106.42 17.7219 9.56552 11.5902 
262 1 106.42 2.17918 13.7702 8.1663 
281 1 106.42 0.141876 15.5574 7.99797 
269 1 106.42 7.82537 11.8373 7.88454 
268 1 106.42 4.22332 13.9211 9.77265 
272 1 106.42 7.77126 13.4663 9.85624 
270 1 106.42 10.0344 13.9288 7.83414 
370 1 106.42 9.7362 14.1685 11.8267 
291 1 106.42 9.73483 15.5631 9.78613 
393 1 106.42 11.788 15.7188 11.4108 
373 1 106.42 11.6899 11.8419 11.5917 
275 1 106.42 13.6601 11.7981 9.83138 
276 1 106.42 11.9236 13.6338 9.79953 
280 1 106.42 15.4942 13.8634 9.74302 
278 1 106.42 17.6333 13.4606 8.10962 
261 1 106.42 0.0898424 11.7999 7.95615 
264 1 106.42 0.0489475 13.751 9.71741 
397 1 106.42 15.8346 15.7053 11.7564 
378 1 106.42 17.6422 13.659 11.5135 
201 1 106.42 0.0311641 0.0230621 7.98174 
203 1 106.42 1.95886 19.5592 9.67992 
283 1 106.42 2.40033 15.9635 9.60136 
284 1 106.42 0.342492 17.5285 9.92392 
286 1 106.42 6.06798 17.5048 7.93928 
287 1 106.42 6.03828 15.7857 9.94428 
288 1 106.42 3.92476 18.1453 9.9787 
386 1 106.42 6.05839 17.7541 11.8482 
289 1 106.42 7.9293 15.8453 7.98348 
309 1 106.42 8.06021 19.5945 11.6889 
292 1 106.42 8.06961 17.8762 9.72915 
290 1 106.42 10.0783 17.6795 8.04671 
296 1 106.42 11.6131 17.6903 10.0339 
390 1 106.42 9.86253 18.0088 11.6397 
213 1 106.42 11.833 0.0745219 7.85927 
215 1 106.42 13.8876 19.3014 10.0138 
295 1 106.42 13.817 16.1818 9.98458 
293 1 106.42 12.15 15.7102 8.24711 
298 1 106.42 17.7891 17.8753 7.93489 
219 1 106.42 17.9381 19.5575 10.0661 
299 1 106.42 17.8917 15.8021 9.74499 
300 1 106.42 16.0464 17.7348 9.74943 
301 1 106.42 0.25796 0.157973 11.9583 
304 1 106.42 0.146425 2.16106 13.9934 
303 1 106.42 2.00697 0.106742 13.8188 
305 1 106.42 3.77319 0.184351 12.0045 
306 1 106.42 6.13531 1.76322 12.0386 
308 1 106.42 3.9462 2.04726 13.6757 
327 1 106.42 6.0947 3.80256 13.9291 
325 1 106.42 4.2485 3.67791 11.8704 
406 1 106.42 5.88099 1.74954 15.7705 
312 1 106.42 7.79681 1.57164 13.866 
429 1 106.42 7.81491 3.62574 15.685 
329 1 106.42 7.8798 3.67556 12.04 
310 1 106.42 10.0231 2.01795 12.0037 
311 1 106.42 10.2062 0.0474998 13.6715 
410 1 106.42 9.91863 1.86394 15.572 
313 1 106.42 12.1367 0.0983931 11.9468 
316 1 106.42 11.9945 2.01115 13.8838 
315 1 106.42 13.84 0.191798 13.6556 
320 1 106.42 15.8292 1.98835 13.6166 
437 1 106.42 15.65 3.74968 15.6424 
339 1 106.42 17.7546 3.73233 13.7546 
319 1 106.42 18.045 0.151206 13.6792 
323 1 106.42 2.2241 4.01198 13.5472 
324 1 106.42 0.114592 5.70396 13.7395 
343 1 106.42 2.03121 7.48821 13.6326 
441 1 106.42 0.317014 7.86009 15.5493 
328 1 106.42 4.3267 5.75278 13.6446 
347 1 106.42 5.99439 7.79403 13.8039 
332 1 106.42 7.63863 5.83032 13.7363 
426 1 106.42 6.09397 5.93447 15.5871 
330 1 106.42 9.53032 5.66989 11.9107 
331 1 106.42 9.84299 4.08848 13.7881 
336 1 106.42 11.5491 6.23548 13.5995 
430 1 106.42 9.59267 6.02184 15.6147 
433 1 106.42 11.5078 4.15686 15.6176 
333 1 106.42 11.8552 4.17038 11.9827 
334 1 106.42 13.6372 6.05379 11.9159 
335 1 106.42 13.8378 3.98335 13.7011 
434 1 106.42 13.8212 5.81416 15.6749 
340 1 106.42 15.6963 5.65276 13.7985 
357 1 106.42 15.8271 7.7973 11.8508 
438 1 106.42 17.7556 5.80324 15.5829 
342 1 106.42 1.94894 9.8041 11.9093 
442 1 106.42 2.16983 9.7896 15.4974 
348 1 106.42 3.91214 9.90503 13.7915 
345 1 106.42 3.96289 7.98512 11.9378 
449 1 106.42 7.79722 7.98368 15.5544 
352 1 106.42 7.6943 9.73375 13.644 
446 1 106.42 5.81723 9.79305 15.6572 
367 1 106.42 5.79931 11.5207 13.5671 
353 1 106.42 11.7857 8.0788 11.7932 
351 1 106.42 9.61147 8.13317 13.5233 
356 1 106.42 11.7002 10.0713 13.599 
450 1 106.42 9.89194 10.1313 15.3088 
371 1 106.42 9.5128 11.7314 13.4467 
377 1 106.42 15.6937 11.755 11.9094 
355 1 106.42 14.1069 7.87593 13.5513 
375 1 106.42 13.7311 11.7994 13.534 
457 1 106.42 15.6652 7.75835 15.7106 
454 1 106.42 13.6984 9.86551 15.3311 
359 1 106.42 17.7022 7.86187 13.6333 
360 1 106.42 15.9843 10.019 13.4878 
344 1 106.42 0.0907481 9.81606 13.7597 
458 1 106.42 17.8016 9.90912 15.6069 
381 1 106.42 0.363366 15.4542 11.9522 
363 1 106.42 2.10479 11.8524 13.494 
362 1 106.42 2.28139 13.7381 11.5856 
383 1 106.42 2.0078 15.7234 13.7683 
481 1 106.42 19.5167 15.3407 15.7223 
366 1 106.42 5.85364 13.9126 11.9273 
369 1 106.42 7.76899 11.8585 11.7495 
368 1 106.42 4.05611 13.9239 13.8494 
387 1 106.42 5.96011 15.6183 13.8356 
465 1 106.42 3.95938 11.9048 15.4796 
469 1 106.42 7.88809 11.8841 15.6124 
372 1 106.42 8.11384 13.9263 13.6733 
470 1 106.42 9.89059 13.7247 15.664 
374 1 106.42 13.6933 13.8233 11.7158 
376 1 106.42 11.8464 13.5927 13.628 
474 1 106.42 13.8167 13.7223 15.5901 
395 1 106.42 13.703 15.5205 13.6917 
361 1 106.42 19.4069 11.7883 11.8058 
379 1 106.42 17.7113 11.9034 13.936 
364 1 106.42 19.5901 13.6616 13.7986 
380 1 106.42 15.8192 13.7902 13.7129 
399 1 106.42 17.7991 15.7016 13.5665 
385 1 106.42 3.86823 15.8512 11.858 
382 1 106.42 1.92635 17.7299 11.8213 
384 1 106.42 0.167304 17.6427 13.7517 
388 1 106.42 3.82379 17.5116 13.9705 
307 1 106.42 5.71713 19.5296 13.8975 
486 1 106.42 5.8315 17.5655 15.6731 
389 1 106.42 7.94415 15.7108 11.7246 
391 1 106.42 9.92108 15.8652 13.8284 
392 1 106.42 8.12128 17.7946 13.7139 
396 1 106.42 11.681 17.6778 13.5786 
489 1 106.42 7.96966 15.7313 15.6828 
394 1 106.42 13.7705 17.5978 12.1859 
494 1 106.42 13.9179 17.3668 15.4084 
398 1 106.42 17.6823 17.6556 11.9147 
400 1 106.42 15.846 17.9791 13.8116 
498 1 106.42 17.838 17.4747 15.5567 
402 1 106.42 1.92374 2.13914 15.8808 
408 1 106.42 3.79161 1.86561 17.8359 
421 1 106.42 0.380416 3.91083 15.8473 
21 1 106.42 0.123804 3.7576 19.4685 
405 1 106.42 3.43465 0.114622 15.9553 
25 1 106.42 4.27872 3.75102 19.5109 
412 1 106.42 7.65695 1.78535 17.5799 
425 1 106.42 4.05362 3.68117 15.8069 
33 1 106.42 11.699 3.76019 19.4151 
10 1 106.42 9.56557 2.00013 19.4712 
411 1 106.42 9.82052 19.6185 17.5488 
13 1 106.42 11.923 0.0370904 19.4767 
416 1 106.42 11.833 1.917 17.4614 
414 1 106.42 13.7999 1.97726 15.9272 
14 1 106.42 13.7878 1.81433 19.5561 
37 1 106.42 15.5325 3.68943 19.6329 
418 1 106.42 17.586 1.95566 15.6954 
420 1 106.42 15.9583 1.84497 17.6102 
404 1 106.42 0.00225158 1.82398 17.8362 
439 1 106.42 17.9633 3.77142 17.292 
401 1 106.42 19.5186 0.210289 16.0478 
422 1 106.42 2.10309 5.79927 15.6134 
423 1 106.42 2.02468 3.98382 17.7971 
428 1 106.42 3.6954 5.96317 18.021 
424 1 106.42 0.210981 5.74058 17.4668 
443 1 106.42 2.09095 7.71948 17.6849 
445 1 106.42 4.011 7.60291 15.6972 
427 1 106.42 6.00334 4.21202 17.4069 
26 1 106.42 5.93269 5.89921 19.6207 
447 1 106.42 5.91158 7.70141 17.6969 
453 1 106.42 11.6823 7.71978 15.665 
431 1 106.42 9.70829 3.99339 17.4836 
30 1 106.42 9.82778 5.9218 19.5664 
432 1 106.42 8.14928 5.80131 17.6323 
436 1 106.42 11.6895 5.78284 17.7204 
435 1 106.42 13.8706 3.89102 17.6042 
455 1 106.42 13.7975 7.61461 17.4513 
38 1 106.42 17.7947 5.54747 19.2571 
440 1 106.42 15.7712 5.64467 17.5829 
41 1 106.42 19.437 7.65806 19.5263 
57 1 106.42 15.6762 7.44948 19.3982 
42 1 106.42 2.36044 9.89332 19.4291 
463 1 106.42 2.16765 11.5593 17.6622 
461 1 106.42 0.457112 11.7918 15.8144 
444 1 106.42 0.228872 9.65974 17.8665 
46 1 106.42 5.74684 10.003 19.3363 
448 1 106.42 3.99481 9.61172 17.5998 
452 1 106.42 7.73311 9.82537 17.5691 
501 2 1.01 8.58256 9.05877 18.7474 
50 1 106.42 9.82236 9.69736 19.3714 
451 1 106.42 9.60331 8.14618 17.2449 
73 1 106.42 11.3749 11.6922 19.4496 
471 1 106.42 9.67395 11.904 17.6279 
473 1 106.42 11.8895 11.5847 15.7819 
477 1 106.42 15.6831 11.585 15.938 
53 1 106.42 11.7303 7.98801 19.5208 
456 1 106.42 11.9213 9.64439 17.2512 
54 1 106.42 13.7603 9.90544 19.5724 
459 1 106.42 17.6586 7.90945 17.3638 
460 1 106.42 15.7204 9.78051 17.5811 
479 1 106.42 17.6735 11.6693 17.4713 
85 1 106.42 3.64762 15.2817 19.5883 
462 1 106.42 2.01441 13.7438 15.7113 
483 1 106.42 1.66955 15.6654 17.7464 
464 1 106.42 0.143282 13.6027 17.806 
65 1 106.42 4.08342 11.8193 19.6038 
466 1 106.42 5.89933 14.141 15.8057 
467 1 106.42 6.06552 11.9885 17.6171 
468 1 106.42 4.20199 13.7027 17.338 
472 1 106.42 7.92555 13.9748 17.7421 
487 1 106.42 5.49545 15.7054 18.058 
93 1 106.42 11.7338 15.5105 19.4803 
70 1 106.42 9.67958 13.7371 19.6288 
476 1 106.42 11.8508 13.5183 17.575 
493 1 106.42 11.9139 15.6629 15.7331 
475 1 106.42 13.5794 11.7809 17.8439 
480 1 106.42 15.3024 13.6568 17.7389 
495 1 106.42 13.5521 15.3838 17.9147 
77 1 106.42 15.7924 11.8542 19.421 
497 1 106.42 15.7607 15.5562 15.7816 
81 1 106.42 19.6305 15.8295 0.115082 
478 1 106.42 17.3488 13.6337 15.9173 
499 1 106.42 17.6832 15.7031 17.7377 
403 1 106.42 1.87038 19.5337 17.9173 
485 1 106.42 3.82466 15.739 16.0006 
482 1 106.42 1.75926 17.5953 15.7975 
488 1 106.42 3.76699 17.4892 17.7871 
407 1 106.42 5.4964 19.5127 17.6503 
492 1 106.42 7.32062 17.5081 17.6994 
90 1 106.42 10.074 17.9655 19.5757 
490 1 106.42 9.58043 17.6673 15.9911 
409 1 106.42 7.73883 19.326 15.6829 
491 1 106.42 9.64254 16.0064 17.9817 
9 1 106.42 7.80975 0.0813436 19.6249 
413 1 106.42 12.0992 19.2171 15.7775 
496 1 106.42 11.7557 17.6489 17.5899 
415 1 106.42 13.9014 19.4917 17.7291 
417 1 106.42 15.53 19.4897 15.6341 
500 1 106.42 15.5814 17.2531 17.7578 
484 1 106.42 19.5437 17.8816 17.616 
419 1 106.42 17.3832 19.1371 17.8078 
