ITEM: TIMESTEP
79000
ITEM: NUMBER OF ATOMS
501
ITEM: BOX BOUNDS pp pp pp
0.0000000000000000e+00 1.9629018200000001e+01
0.0000000000000000e+00 1.9629018200000001e+01
0.0000000000000000e+00 1.9629018200000001e+01
ITEM: ATOMS id type mass x y z 
2 1 106.42 1.82952 1.66622 0.0918955 
102 1 106.42 1.89916 1.68504 3.79067 
23 1 106.42 2.12623 4.0972 2.08152 
105 1 106.42 4.14013 -0.0619528 4.05002 
8 1 106.42 4.13342 2.00413 2.166 
12 1 106.42 7.77801 1.94102 2.09578 
7 1 106.42 5.87819 0.16871 2.08784 
11 1 106.42 9.78392 0.0702955 1.90438 
110 1 106.42 9.64091 1.75276 4.06205 
31 1 106.42 9.70284 3.49938 1.9391 
133 1 106.42 11.4313 3.92636 3.81311 
16 1 106.42 11.8404 1.99806 1.8558 
35 1 106.42 13.6027 4.09657 1.75216 
13 1 106.42 12.0235 -0.0240127 19.3825 
20 1 106.42 15.5369 1.87531 1.97187 
4 1 106.42 19.5482 1.9525 1.89824 
118 1 106.42 17.717 1.85154 4.01705 
18 1 106.42 17.5801 2.01099 0.259113 
17 1 106.42 15.6074 0.0803861 0.00631758 
122 1 106.42 1.73301 5.86282 3.85437 
22 1 106.42 2.16012 5.70769 0.145419 
125 1 106.42 4.06087 4.0808 4.0113 
28 1 106.42 3.71636 6.09136 2.11184 
27 1 106.42 5.84015 3.99643 1.93771 
129 1 106.42 7.8235 4.07297 4.07502 
26 1 106.42 5.77272 6.06478 0.0753169 
32 1 106.42 7.92844 5.77939 1.67834 
36 1 106.42 11.5324 5.77925 1.84121 
51 1 106.42 9.73543 7.98874 2.06531 
153 1 106.42 11.4951 7.89122 3.98453 
501 2 1.01 9.09363 8.17346 0.118842 
134 1 106.42 13.4234 5.67107 3.88021 
40 1 106.42 15.2199 5.907 2.01866 
55 1 106.42 13.2818 7.58539 2.07157 
39 1 106.42 17.5238 4.0168 2.03846 
121 1 106.42 19.574 3.82638 3.98911 
24 1 106.42 19.3862 5.82069 1.89067 
59 1 106.42 17.2356 7.43109 1.62697 
141 1 106.42 19.3841 7.93725 3.54322 
37 1 106.42 15.5923 4.11962 0.0127563 
41 1 106.42 0.0757934 7.81795 0.0145413 
43 1 106.42 1.95758 7.91443 2.16071 
48 1 106.42 3.9453 9.9668 1.91646 
61 1 106.42 0.170316 11.7352 19.5176 
145 1 106.42 3.84741 8.03034 3.90724 
42 1 106.42 1.90729 9.78053 0.138162 
47 1 106.42 5.87662 8.14759 1.7596 
52 1 106.42 7.96378 9.8744 1.94074 
49 1 106.42 7.62831 7.9434 19.5152 
67 1 106.42 5.81026 11.7647 2.01457 
149 1 106.42 7.84848 7.80419 3.68976 
56 1 106.42 11.6145 9.61341 1.90372 
150 1 106.42 9.7618 10.2403 3.97731 
173 1 106.42 11.6906 11.7952 3.98059 
75 1 106.42 13.7419 11.8575 2.18304 
154 1 106.42 13.4273 9.58441 3.71824 
157 1 106.42 15.3901 7.98045 3.39845 
54 1 106.42 13.6543 9.57293 0.097534 
60 1 106.42 15.8556 9.83657 1.58417 
44 1 106.42 19.696 9.78313 1.79175 
161 1 106.42 19.5123 11.9243 4.04601 
158 1 106.42 17.4825 9.68636 3.73082 
79 1 106.42 17.9531 11.5539 1.89804 
63 1 106.42 2.00434 11.9347 2.14577 
68 1 106.42 3.97205 13.7095 1.90655 
62 1 106.42 2.01568 13.7895 0.0392571 
81 1 106.42 19.5006 15.617 0.156068 
66 1 106.42 6.19036 13.8183 0.0282117 
72 1 106.42 7.80166 13.5833 1.91427 
87 1 106.42 5.8513 15.7229 2.05299 
85 1 106.42 4.09124 15.7761 0.264401 
71 1 106.42 9.84732 11.6633 1.7508 
76 1 106.42 11.6373 13.7417 1.81077 
70 1 106.42 9.59112 13.8846 0.0778541 
80 1 106.42 15.7253 13.8013 2.0653 
95 1 106.42 13.6388 15.6392 2.06535 
74 1 106.42 13.8644 13.6266 0.157973 
97 1 106.42 15.5415 15.6633 0.182123 
64 1 106.42 19.6029 13.6782 1.98592 
99 1 106.42 17.7753 15.7178 2.15524 
5 1 106.42 3.94747 19.6718 0.380294 
83 1 106.42 1.75239 15.5066 2.23902 
3 1 106.42 2.0171 19.3909 1.96335 
88 1 106.42 3.93044 17.3222 2.3824 
82 1 106.42 2.21715 17.5269 19.6331 
89 1 106.42 7.60289 16.0464 0.178451 
86 1 106.42 5.74145 17.8244 0.330119 
9 1 106.42 7.59715 19.6884 0.285295 
91 1 106.42 9.81909 15.9321 1.92754 
92 1 106.42 8.0269 17.8141 2.05982 
96 1 106.42 11.7463 17.8248 1.99642 
15 1 106.42 13.6443 19.4058 1.79553 
100 1 106.42 15.6659 17.5966 1.92922 
194 1 106.42 13.845 17.5792 4.06792 
197 1 106.42 15.7264 15.6777 3.91667 
84 1 106.42 19.445 17.6819 2.13237 
19 1 106.42 17.5939 19.6526 2.16465 
98 1 106.42 17.2923 17.6849 0.0488226 
202 1 106.42 1.77403 2.12071 7.99612 
103 1 106.42 1.95629 0.0215347 5.84828 
108 1 106.42 3.78327 2.01354 5.54549 
123 1 106.42 1.88567 3.71074 5.79774 
201 1 106.42 0.0497607 -0.0114292 7.7314 
106 1 106.42 6.02723 2.23169 4.14884 
206 1 106.42 6.11967 1.82666 7.85393 
127 1 106.42 5.97064 4.03054 6.01054 
113 1 106.42 11.9109 0.248349 3.65308 
109 1 106.42 7.86353 19.4144 3.98076 
112 1 106.42 7.89766 2.00381 5.92321 
209 1 106.42 7.901 0.0723669 7.88305 
111 1 106.42 9.8102 0.225063 6.11422 
213 1 106.42 11.4736 0.143966 7.88928 
114 1 106.42 13.9233 1.94483 3.72413 
116 1 106.42 11.6447 2.13033 5.8174 
217 1 106.42 15.7212 19.4777 8.10963 
117 1 106.42 15.3517 19.4233 4.06962 
115 1 106.42 13.5993 0.0937723 5.89686 
104 1 106.42 19.5689 1.93786 5.96098 
120 1 106.42 15.7655 1.98861 6.05744 
137 1 106.42 15.7756 3.85613 3.96564 
139 1 106.42 17.6031 3.79493 5.86037 
237 1 106.42 15.5763 4.10496 7.655 
128 1 106.42 3.91076 5.91384 5.80796 
222 1 106.42 1.85536 5.63672 7.75731 
245 1 106.42 3.68264 7.65429 7.79782 
143 1 106.42 1.84913 7.43268 5.95128 
126 1 106.42 5.61105 6.13037 3.90321 
132 1 106.42 7.68762 5.94216 5.57844 
130 1 106.42 9.61363 6.0232 3.81827 
131 1 106.42 9.8941 3.84356 5.6733 
151 1 106.42 9.86338 7.76713 5.92919 
229 1 106.42 7.70788 4.16557 7.70951 
135 1 106.42 13.6498 3.99185 5.66256 
136 1 106.42 11.7902 5.96144 5.83791 
140 1 106.42 15.4285 6.19206 5.61768 
253 1 106.42 11.7564 7.73801 7.7404 
234 1 106.42 13.7724 5.83953 7.58508 
138 1 106.42 17.591 6.03053 3.98595 
124 1 106.42 19.2686 5.8556 5.75022 
241 1 106.42 19.4842 7.74658 7.855 
142 1 106.42 2.06468 9.87407 4.02779 
163 1 106.42 1.99231 11.8726 6.10241 
148 1 106.42 4.11976 9.88055 5.74886 
261 1 106.42 0.00376877 11.4343 7.8279 
147 1 106.42 5.87416 7.81505 5.91308 
146 1 106.42 6.02188 9.79305 4.1055 
152 1 106.42 8.0616 9.67123 5.87874 
156 1 106.42 11.6311 9.72437 5.88224 
171 1 106.42 9.69568 11.7525 5.84621 
155 1 106.42 13.6451 8.08075 5.6958 
257 1 106.42 15.6098 8.01315 7.67773 
254 1 106.42 13.8676 9.98222 7.71202 
160 1 106.42 15.4498 9.8854 5.47962 
159 1 106.42 17.3076 8.11924 5.81441 
144 1 106.42 19.3978 9.64831 5.58032 
179 1 106.42 17.6263 11.6943 6.30253 
185 1 106.42 3.81775 15.8002 4.23818 
162 1 106.42 2.0129 13.7582 3.89989 
183 1 106.42 1.78888 15.7097 6.25656 
168 1 106.42 3.73061 13.7937 5.95602 
164 1 106.42 0.0112377 13.7557 6.16189 
165 1 106.42 4.03903 11.8072 4.1263 
169 1 106.42 7.74209 11.8355 4.07759 
167 1 106.42 5.66669 12.1218 6.00614 
166 1 106.42 5.85328 14.0316 4.07724 
170 1 106.42 9.7113 13.64 3.75377 
172 1 106.42 7.62299 14.011 5.88791 
270 1 106.42 9.65078 13.7357 7.76173 
177 1 106.42 15.9026 11.8055 3.84552 
174 1 106.42 13.5702 13.7056 3.85423 
175 1 106.42 13.8494 11.9026 5.94775 
176 1 106.42 11.8262 13.6026 6.01698 
180 1 106.42 15.9334 13.6425 5.97645 
274 1 106.42 13.8222 13.5236 7.96686 
181 1 106.42 19.461 15.5918 4.23784 
178 1 106.42 17.5915 13.8382 4.04557 
199 1 106.42 17.5842 15.751 6.16959 
182 1 106.42 1.86672 17.5481 3.77667 
282 1 106.42 2.26946 17.8194 7.90748 
188 1 106.42 3.69326 17.7823 5.53336 
184 1 106.42 -0.0410941 17.7952 5.92168 
187 1 106.42 5.7431 15.9293 5.96212 
186 1 106.42 5.97308 17.6387 3.87857 
205 1 106.42 3.96674 19.7158 7.64294 
107 1 106.42 5.93369 0.0746713 5.67489 
285 1 106.42 4.04454 16.1295 7.80652 
193 1 106.42 11.6335 15.9065 3.9677 
190 1 106.42 10.0621 18.0411 4.09087 
189 1 106.42 7.91469 15.7031 3.80604 
191 1 106.42 9.90337 15.4541 5.81659 
192 1 106.42 7.98389 17.6981 5.86824 
196 1 106.42 11.9652 17.7267 5.94627 
195 1 106.42 13.7399 15.7072 6.16357 
200 1 106.42 15.6546 17.6824 6.13976 
119 1 106.42 17.3352 19.4689 5.84639 
198 1 106.42 17.5127 17.6998 4.0054 
101 1 106.42 19.4091 19.5794 4.02007 
204 1 106.42 0.0150026 2.1675 9.79538 
321 1 106.42 0.370636 4.19497 11.7593 
302 1 106.42 2.43427 1.86146 11.7408 
208 1 106.42 3.91814 2.02405 9.50052 
203 1 106.42 1.96562 0.00937065 9.68174 
227 1 106.42 5.96442 3.61968 9.64673 
207 1 106.42 6.08424 0.230994 10.0051 
305 1 106.42 4.04942 19.5306 11.2631 
325 1 106.42 3.82978 3.94548 11.4161 
210 1 106.42 9.45592 2.23503 7.99645 
212 1 106.42 8.00566 2.17198 9.91042 
211 1 106.42 10.0066 0.147314 9.76116 
214 1 106.42 13.8477 2.07368 7.91769 
216 1 106.42 11.7408 2.22461 9.64524 
314 1 106.42 13.8082 1.95978 11.693 
337 1 106.42 15.6398 3.73043 11.6346 
313 1 106.42 11.6606 0.0231805 11.6738 
220 1 106.42 15.8396 1.95192 9.81865 
218 1 106.42 17.5094 1.93418 7.8792 
318 1 106.42 17.9394 2.11081 11.7916 
239 1 106.42 17.9131 4.05762 9.89148 
219 1 106.42 17.9573 0.100449 9.56059 
223 1 106.42 2.06402 4.06284 9.57879 
224 1 106.42 0.0584386 5.90644 9.82019 
243 1 106.42 1.8179 7.71443 10.0724 
322 1 106.42 2.04907 5.87039 11.8538 
341 1 106.42 19.5572 7.71755 11.6417 
225 1 106.42 4.2434 3.84869 7.63058 
228 1 106.42 3.90801 5.92279 9.81375 
226 1 106.42 5.72065 5.95212 7.80883 
247 1 106.42 6.21164 8.03365 9.88121 
326 1 106.42 5.83956 5.68072 11.896 
232 1 106.42 7.65693 5.59511 9.98598 
249 1 106.42 7.94096 7.51339 7.9387 
231 1 106.42 9.87317 4.2505 9.826 
230 1 106.42 9.78613 5.71558 7.60431 
233 1 106.42 11.7958 3.89163 7.73831 
251 1 106.42 9.46338 7.74995 9.92144 
330 1 106.42 9.89398 6.02912 11.8729 
235 1 106.42 13.6726 3.98009 9.60982 
236 1 106.42 11.7289 5.92226 9.6754 
240 1 106.42 15.6507 5.89293 9.50176 
238 1 106.42 17.3367 5.80311 7.90393 
221 1 106.42 -4.3532e-05 3.89102 7.73098 
338 1 106.42 17.5541 5.93811 11.5281 
259 1 106.42 17.8413 7.85006 9.81605 
357 1 106.42 15.7711 7.74368 11.5659 
242 1 106.42 1.85401 9.47069 7.86058 
265 1 106.42 3.86083 11.8569 7.78172 
263 1 106.42 1.95546 11.6136 10.1561 
248 1 106.42 4.10347 9.61121 9.59951 
246 1 106.42 6.15355 9.89083 7.80065 
267 1 106.42 5.861 11.6207 9.62572 
346 1 106.42 5.98968 10.0768 11.7479 
345 1 106.42 4.0778 7.79459 11.7056 
250 1 106.42 9.86833 9.70381 8.01524 
273 1 106.42 11.8011 11.5622 7.87786 
252 1 106.42 8.03138 10.0285 9.60255 
350 1 106.42 9.88122 9.77 11.9311 
256 1 106.42 11.7678 9.68699 9.80571 
255 1 106.42 13.7652 8.03893 9.88598 
260 1 106.42 15.8849 9.93157 10.2028 
354 1 106.42 13.9284 9.98357 11.9267 
353 1 106.42 11.9004 7.97095 11.7214 
258 1 106.42 17.2745 9.77072 7.95413 
244 1 106.42 19.6 9.56403 9.69193 
279 1 106.42 17.8423 11.7173 9.71536 
262 1 106.42 1.9694 13.7818 8.02708 
264 1 106.42 19.3298 13.3075 9.97528 
381 1 106.42 0.1019 15.813 11.5967 
362 1 106.42 2.11537 13.9752 11.7245 
266 1 106.42 5.65979 13.88 7.71477 
365 1 106.42 4.14547 11.7923 11.8492 
269 1 106.42 7.78303 12.0948 7.98336 
268 1 106.42 4.01548 13.853 9.64774 
272 1 106.42 7.72156 14.0672 9.94595 
289 1 106.42 8.03834 15.9283 7.895 
271 1 106.42 9.83989 12.1648 9.70331 
370 1 106.42 9.77898 13.7601 11.6047 
291 1 106.42 10.0112 15.7358 9.90595 
373 1 106.42 12.017 11.5816 11.5318 
369 1 106.42 7.99186 11.9247 11.664 
275 1 106.42 13.9843 11.7566 9.77805 
276 1 106.42 11.8793 14.0272 9.6575 
280 1 106.42 15.7339 13.8058 9.93422 
293 1 106.42 11.6288 15.8459 7.54338 
374 1 106.42 13.7408 13.8533 11.9006 
277 1 106.42 15.6649 11.9392 7.84737 
278 1 106.42 17.8481 13.9038 7.94357 
378 1 106.42 17.7313 13.9336 12.1067 
299 1 106.42 17.5264 15.7004 10.1131 
281 1 106.42 0.091219 15.9356 8.18691 
283 1 106.42 2.13316 15.8865 9.78886 
286 1 106.42 6.19569 17.8523 8.03439 
287 1 106.42 5.89621 15.9468 9.94069 
288 1 106.42 4.25654 17.7465 9.78866 
292 1 106.42 7.92552 17.7352 10.0372 
290 1 106.42 9.91256 17.6761 7.97763 
390 1 106.42 10.0439 17.4919 11.691 
294 1 106.42 13.46 18.1339 7.86804 
296 1 106.42 11.9239 17.8288 9.78227 
215 1 106.42 13.8445 0.403188 9.85521 
295 1 106.42 13.892 15.6826 9.90106 
297 1 106.42 15.6072 15.9184 7.90811 
284 1 106.42 19.5951 17.8248 9.82397 
298 1 106.42 17.6434 17.6048 7.94037 
300 1 106.42 15.951 17.7917 10.063 
398 1 106.42 17.8112 17.7124 11.8786 
301 1 106.42 0.29691 19.5791 11.5216 
304 1 106.42 0.279759 1.9977 13.5098 
303 1 106.42 2.00966 0.0579422 13.5982 
323 1 106.42 2.20885 3.86011 13.818 
306 1 106.42 5.64451 2.08847 11.838 
308 1 106.42 3.9609 1.76105 14.1817 
327 1 106.42 5.89081 3.74279 13.951 
329 1 106.42 7.76343 3.76738 11.9168 
309 1 106.42 7.81914 0.194376 11.9739 
312 1 106.42 7.92207 1.9094 14.085 
310 1 106.42 9.88815 1.86572 11.8895 
410 1 106.42 9.9866 1.92934 15.667 
331 1 106.42 9.77732 3.81364 13.6568 
316 1 106.42 11.8713 2.0243 13.7338 
320 1 106.42 15.5559 1.77656 13.6974 
335 1 106.42 13.8648 3.818 13.7096 
414 1 106.42 13.721 1.94948 15.6883 
317 1 106.42 15.8774 0.0417907 11.7942 
339 1 106.42 17.6139 3.69653 13.7462 
319 1 106.42 17.6933 0.0759731 13.7618 
418 1 106.42 18.2792 2.00595 15.7876 
343 1 106.42 1.96799 7.91744 13.715 
421 1 106.42 0.0640763 3.93097 15.3966 
422 1 106.42 1.99617 5.84172 15.6362 
445 1 106.42 3.94484 8.06073 15.6944 
349 1 106.42 7.76069 8.17472 12.0114 
328 1 106.42 3.96087 5.79737 13.6103 
332 1 106.42 7.74526 5.97303 13.9311 
336 1 106.42 11.7605 5.72877 13.4651 
430 1 106.42 9.80812 5.92083 15.4557 
433 1 106.42 11.8859 3.80768 15.5728 
333 1 106.42 11.6985 3.90311 11.661 
334 1 106.42 13.9391 5.73758 11.6475 
434 1 106.42 13.7465 5.63868 15.3088 
453 1 106.42 12.022 8.00594 15.3015 
324 1 106.42 0.15419 5.95558 13.4168 
340 1 106.42 15.8989 6.00793 13.5113 
438 1 106.42 17.6763 5.49024 15.7678 
457 1 106.42 15.9055 7.45286 15.5209 
359 1 106.42 18.0461 7.61689 13.7317 
342 1 106.42 2.16628 9.64144 11.7753 
344 1 106.42 0.433712 9.74014 13.6689 
461 1 106.42 0.0737437 11.7135 15.4212 
347 1 106.42 5.89806 8.03394 13.6923 
348 1 106.42 3.87532 10.0439 13.6571 
352 1 106.42 8.01403 10.1092 13.5953 
446 1 106.42 5.93793 9.94071 15.7061 
469 1 106.42 7.88964 11.6419 15.5586 
449 1 106.42 7.97535 8.02242 15.543 
351 1 106.42 10.1103 8.03744 13.8453 
356 1 106.42 11.9098 9.97256 13.6663 
355 1 106.42 13.7957 7.68612 13.4361 
454 1 106.42 14.1054 9.66353 15.4292 
473 1 106.42 12.1333 11.6776 15.6777 
358 1 106.42 17.7882 9.60587 12.0708 
360 1 106.42 15.8634 9.61739 13.5492 
458 1 106.42 17.4896 9.45127 15.7308 
361 1 106.42 19.6949 11.5343 11.838 
379 1 106.42 17.7623 11.5545 13.7445 
477 1 106.42 15.8727 11.7531 15.5135 
363 1 106.42 1.96624 11.9883 13.5922 
368 1 106.42 3.82666 13.8903 13.6037 
465 1 106.42 3.94071 11.8628 15.7095 
364 1 106.42 0.228892 13.8631 13.4625 
462 1 106.42 1.71016 13.753 15.7634 
367 1 106.42 5.7759 11.8902 13.8271 
366 1 106.42 5.97549 13.8251 11.6435 
372 1 106.42 7.90899 13.8255 13.6948 
371 1 106.42 9.89582 11.7516 14.0324 
470 1 106.42 9.5231 13.8723 15.7496 
376 1 106.42 11.9171 13.7823 14.1581 
393 1 106.42 11.7864 15.5605 12.0312 
375 1 106.42 13.8689 12.0329 13.6179 
474 1 106.42 13.8547 13.6708 15.9342 
395 1 106.42 13.7777 15.6253 14.0279 
377 1 106.42 16.1117 11.9538 11.7638 
380 1 106.42 16.0099 13.8167 13.858 
478 1 106.42 18.0864 13.6296 15.6188 
383 1 106.42 1.67031 15.8955 13.6452 
382 1 106.42 2.28103 17.7432 11.7677 
388 1 106.42 3.74695 17.5176 13.7331 
401 1 106.42 0.118721 19.4117 15.4884 
482 1 106.42 1.74327 17.4539 15.7551 
386 1 106.42 5.82055 17.8909 11.9069 
387 1 106.42 5.86883 15.8482 13.6874 
385 1 106.42 4.06491 15.6729 11.9326 
307 1 106.42 5.84641 19.5606 14.021 
389 1 106.42 8.01425 15.7894 12.0426 
489 1 106.42 7.77716 15.9775 15.6681 
311 1 106.42 9.94197 19.4523 13.8529 
391 1 106.42 9.7206 15.5288 13.6778 
392 1 106.42 7.72865 17.7516 13.7536 
396 1 106.42 11.9204 17.7191 13.8992 
397 1 106.42 15.6116 15.6068 12.0996 
315 1 106.42 13.804 19.2379 13.8967 
394 1 106.42 13.9807 17.7801 11.912 
413 1 106.42 11.7809 0.039782 15.6294 
399 1 106.42 17.8067 15.6501 13.925 
384 1 106.42 19.4256 17.6194 13.689 
400 1 106.42 15.8745 17.6088 13.9317 
498 1 106.42 17.5618 17.6259 15.7784 
402 1 106.42 1.76611 1.69614 15.7887 
408 1 106.42 3.77983 1.77987 17.6546 
21 1 106.42 19.5719 3.85715 0.163294 
423 1 106.42 1.8909 3.75613 17.6705 
6 1 106.42 5.78782 1.91402 19.5121 
29 1 106.42 7.83324 3.62273 19.5696 
406 1 106.42 5.80195 2.01811 16.0158 
25 1 106.42 3.7915 3.68376 19.6958 
429 1 106.42 7.72361 3.97541 15.6809 
412 1 106.42 7.80658 1.81757 17.627 
33 1 106.42 11.7789 3.83582 19.5245 
10 1 106.42 9.9718 1.56405 19.5297 
411 1 106.42 9.73299 19.6076 17.4458 
416 1 106.42 11.9179 1.66871 17.5636 
431 1 106.42 9.87583 3.77087 17.5485 
14 1 106.42 13.9458 2.04332 19.6575 
435 1 106.42 13.6482 3.6653 17.5673 
437 1 106.42 15.9882 3.67548 15.7617 
420 1 106.42 15.9709 2.17023 17.8372 
404 1 106.42 19.5201 1.6825 17.7819 
439 1 106.42 17.9557 3.69707 17.6663 
417 1 106.42 16.0271 0.144387 15.844 
45 1 106.42 3.73242 7.83268 19.5613 
424 1 106.42 0.160943 5.81585 17.6666 
443 1 106.42 2.03941 7.71887 17.646 
426 1 106.42 5.86362 6.10592 15.7742 
425 1 106.42 4.16097 4.00702 15.8133 
428 1 106.42 4.06933 5.97974 17.4762 
427 1 106.42 6.10181 3.67047 17.7704 
447 1 106.42 5.84372 8.14432 17.5281 
432 1 106.42 7.45688 6.17658 17.6676 
30 1 106.42 9.65338 5.63814 19.3173 
436 1 106.42 11.6667 5.77084 17.0994 
451 1 106.42 9.88319 7.61527 17.5047 
53 1 106.42 11.6926 7.78597 19.5711 
34 1 106.42 13.6378 5.70311 19.2718 
455 1 106.42 13.364 7.64398 17.4862 
440 1 106.42 15.3912 5.75667 17.4855 
57 1 106.42 15.4153 7.65125 19.564 
38 1 106.42 17.6129 5.82763 19.4941 
459 1 106.42 17.6388 7.62152 17.6684 
441 1 106.42 19.6208 7.75782 15.7377 
442 1 106.42 1.91253 9.69049 15.8871 
463 1 106.42 2.07261 11.9425 17.709 
444 1 106.42 -0.0103415 9.69357 17.4699 
46 1 106.42 5.80493 10.0046 0.0289751 
448 1 106.42 3.96314 10.0646 17.6717 
452 1 106.42 7.79142 9.90262 17.6708 
69 1 106.42 7.93565 11.8196 19.4324 
450 1 106.42 9.95074 9.81465 16.0638 
50 1 106.42 9.66082 9.87213 19.575 
456 1 106.42 11.7406 9.91888 17.8675 
460 1 106.42 15.5924 9.13554 17.4529 
475 1 106.42 13.9988 11.4848 17.5088 
58 1 106.42 17.4326 9.59291 18.952 
479 1 106.42 17.9463 11.6294 17.5161 
464 1 106.42 19.5983 13.7057 17.7132 
485 1 106.42 3.83874 15.5298 15.7671 
65 1 106.42 3.70918 11.7916 0.123097 
466 1 106.42 5.86743 13.6669 15.625 
467 1 106.42 5.91684 11.8617 17.6776 
468 1 106.42 3.72245 13.919 17.8582 
73 1 106.42 11.9565 11.9172 0.0587945 
471 1 106.42 9.82359 11.9847 17.4341 
472 1 106.42 7.66779 13.8652 17.6224 
93 1 106.42 11.5926 15.6252 19.4149 
476 1 106.42 11.8518 13.6385 17.6282 
480 1 106.42 16.1705 13.5198 17.5613 
495 1 106.42 13.7846 15.4427 17.6464 
78 1 106.42 17.7044 13.6837 19.5546 
481 1 106.42 19.5351 15.9615 15.9577 
77 1 106.42 16.13 11.7587 0.0851991 
497 1 106.42 15.7101 15.7639 15.6834 
405 1 106.42 4.08326 19.4648 15.834 
483 1 106.42 2.08649 15.6133 17.7909 
403 1 106.42 1.71977 19.4879 17.6951 
488 1 106.42 3.83252 17.6283 17.733 
486 1 106.42 5.60765 17.493 16.0045 
487 1 106.42 6.09226 15.8289 17.7874 
407 1 106.42 5.82923 19.5308 17.8571 
492 1 106.42 7.97912 17.8868 17.7669 
409 1 106.42 7.45021 19.4814 15.8773 
493 1 106.42 11.5815 15.7077 15.9174 
90 1 106.42 9.61151 17.8124 19.4899 
490 1 106.42 9.83275 17.6776 15.5611 
491 1 106.42 9.59812 15.9219 17.7192 
496 1 106.42 11.7901 17.8318 17.733 
94 1 106.42 13.5485 17.4547 19.6656 
494 1 106.42 13.6097 17.604 15.9547 
415 1 106.42 13.8972 0.14569 17.58 
500 1 106.42 15.6274 17.6099 17.6877 
1 1 106.42 19.1933 19.3428 0.118451 
499 1 106.42 17.3159 15.7696 17.9338 
484 1 106.42 19.4612 17.2376 18.1334 
419 1 106.42 17.8572 19.5085 17.7165 
