ITEM: TIMESTEP
81300
ITEM: NUMBER OF ATOMS
501
ITEM: BOX BOUNDS pp pp pp
0.0000000000000000e+00 1.9629018200000001e+01
0.0000000000000000e+00 1.9629018200000001e+01
0.0000000000000000e+00 1.9629018200000001e+01
ITEM: ATOMS id type mass x y z 
2 1 106.42 1.90819 2.05717 0.01156 
8 1 106.42 3.98595 1.77556 1.76683 
23 1 106.42 1.89773 3.75385 2.22177 
125 1 106.42 3.79811 3.85058 3.84032 
12 1 106.42 7.84767 1.71083 1.70878 
106 1 106.42 5.61034 1.80594 3.77227 
129 1 106.42 7.60554 3.66175 3.65261 
6 1 106.42 5.81139 1.78443 0.154733 
16 1 106.42 11.5982 1.64445 2.12169 
110 1 106.42 9.78292 2.12602 3.74412 
10 1 106.42 9.77368 2.00117 0.0685195 
20 1 106.42 15.6901 2.20669 1.94709 
114 1 106.42 13.5253 1.87649 3.82777 
15 1 106.42 13.7645 0.0700104 2.08975 
17 1 106.42 15.8424 0.289105 0.0844274 
4 1 106.42 19.5481 1.92193 2.15485 
39 1 106.42 17.7943 3.81819 1.7978 
117 1 106.42 15.7771 0.105914 3.84506 
118 1 106.42 17.6227 1.86406 3.7349 
101 1 106.42 19.3803 -0.00696564 3.87797 
25 1 106.42 3.88776 4.16605 0.0208449 
21 1 106.42 0.0622726 3.98719 -0.0495447 
28 1 106.42 3.76174 5.90658 1.90191 
24 1 106.42 0.301243 5.80682 2.13071 
43 1 106.42 2.02444 7.85868 1.92652 
122 1 106.42 2.34802 6.04335 3.84187 
27 1 106.42 5.74055 4.01747 1.77707 
32 1 106.42 7.93324 5.79774 1.79287 
47 1 106.42 5.83007 7.74484 1.98454 
31 1 106.42 9.83139 3.9871 2.02668 
36 1 106.42 11.7338 5.97854 2.03181 
130 1 106.42 9.82071 5.86923 3.78489 
501 2 1.01 10.332 8.21807 18.7203 
137 1 106.42 15.3698 4.06522 3.74786 
35 1 106.42 13.4869 3.91602 1.83078 
40 1 106.42 15.5409 5.78344 1.84377 
55 1 106.42 13.8591 7.92756 1.72767 
157 1 106.42 15.4976 7.79599 3.96581 
134 1 106.42 13.6704 6.13225 3.70687 
34 1 106.42 13.5238 5.76438 0.0969244 
138 1 106.42 17.6388 5.87253 3.52602 
38 1 106.42 17.8033 5.97282 0.417217 
41 1 106.42 19.6037 7.64905 0.130974 
44 1 106.42 0.0750618 9.60293 2.11864 
63 1 106.42 2.04858 11.7116 1.89383 
45 1 106.42 3.80473 8.06467 19.54 
48 1 106.42 3.82624 9.74938 1.93355 
142 1 106.42 2.16198 9.74313 3.87866 
42 1 106.42 1.77539 9.87243 0.0925472 
149 1 106.42 7.82436 7.90989 3.75103 
146 1 106.42 5.74983 9.70331 3.78758 
46 1 106.42 5.87333 9.81127 0.155543 
52 1 106.42 8.18044 9.89609 2.02728 
51 1 106.42 9.98509 7.99262 2.29721 
150 1 106.42 10.1252 9.99581 3.94016 
50 1 106.42 9.91751 9.7428 0.248743 
56 1 106.42 11.9677 9.99293 1.91195 
54 1 106.42 13.7826 9.79204 0.157666 
153 1 106.42 12.1445 8.23053 3.7737 
60 1 106.42 15.833 9.56723 2.16561 
59 1 106.42 17.9147 7.85573 2.27812 
58 1 106.42 17.8269 9.7751 0.119652 
77 1 106.42 15.8808 11.5629 0.196196 
65 1 106.42 3.90435 11.7217 0.0836944 
64 1 106.42 0.17473 13.7414 2.07777 
68 1 106.42 3.59792 13.5712 2.25513 
165 1 106.42 4.02372 11.7485 3.92378 
67 1 106.42 5.87898 11.8558 2.09299 
72 1 106.42 7.79201 13.8075 1.92823 
166 1 106.42 5.89998 13.8579 3.76135 
66 1 106.42 5.8413 13.8601 0.0977767 
169 1 106.42 8.16795 11.9719 3.68345 
71 1 106.42 9.81585 11.9285 1.86095 
91 1 106.42 9.81154 15.4062 2.01384 
70 1 106.42 10.0969 13.7631 0.0529425 
76 1 106.42 12.1364 13.7562 2.00977 
75 1 106.42 13.8199 11.9113 1.76391 
93 1 106.42 12.0472 15.7031 0.0470482 
80 1 106.42 15.7369 13.8044 1.82288 
95 1 106.42 14.1152 15.5699 1.87356 
174 1 106.42 14.0819 13.6514 3.90132 
173 1 106.42 11.9094 11.8151 3.76093 
79 1 106.42 17.4331 11.9711 2.08264 
99 1 106.42 17.5852 15.6064 2.07917 
181 1 106.42 19.5244 15.5766 3.77005 
61 1 106.42 19.5752 11.8859 0.194093 
83 1 106.42 2.14684 15.7939 1.91347 
81 1 106.42 0.143758 15.7041 0.220671 
3 1 106.42 1.8887 19.5753 2.26233 
82 1 106.42 1.76594 17.7827 19.5876 
88 1 106.42 3.87624 17.6126 1.67814 
185 1 106.42 4.00168 15.8238 3.85868 
87 1 106.42 5.89211 15.9519 1.8187 
7 1 106.42 5.98011 19.3146 1.89486 
92 1 106.42 7.84335 17.5263 1.92071 
11 1 106.42 9.71957 19.4012 1.98323 
90 1 106.42 9.84928 17.4206 0.0858189 
13 1 106.42 11.7445 19.3676 0.346281 
190 1 106.42 9.55738 17.599 3.73779 
96 1 106.42 12.0689 17.3436 2.08877 
100 1 106.42 15.5183 17.8675 2.02904 
94 1 106.42 13.862 17.9165 0.043971 
197 1 106.42 15.6353 15.972 3.8896 
19 1 106.42 17.6081 19.4475 1.57953 
84 1 106.42 19.4299 17.7463 2.027 
198 1 106.42 17.6116 17.7139 3.96171 
98 1 106.42 17.872 17.7596 -0.0078683 
102 1 106.42 2.03342 1.93058 4.30944 
123 1 106.42 1.87015 3.88352 5.85011 
202 1 106.42 1.95494 2.05428 7.63143 
108 1 106.42 4.10399 1.91136 6.12712 
112 1 106.42 7.58622 2.07774 5.90381 
107 1 106.42 5.90232 0.032959 5.95645 
109 1 106.42 7.751 0.056957 3.81423 
127 1 106.42 5.7091 3.7932 5.93766 
111 1 106.42 9.3814 -0.00118538 5.60705 
116 1 106.42 11.6835 1.86615 5.87717 
131 1 106.42 9.65005 3.8629 5.84244 
210 1 106.42 9.8479 1.8169 7.66853 
133 1 106.42 11.7758 3.93992 4.04155 
120 1 106.42 15.5223 2.10021 5.83665 
214 1 106.42 13.469 1.93272 7.77573 
217 1 106.42 15.5546 0.218563 7.73008 
104 1 106.42 19.356 2.07786 5.87011 
218 1 106.42 17.4651 2.17557 7.64529 
119 1 106.42 17.5942 19.6028 5.75301 
222 1 106.42 1.83715 5.9591 7.69223 
126 1 106.42 6.04295 5.65073 4.14765 
128 1 106.42 4.06829 5.82436 6.32514 
145 1 106.42 4.13858 7.5594 3.88798 
132 1 106.42 7.90809 5.80995 5.9158 
136 1 106.42 11.7473 5.92377 5.80081 
135 1 106.42 13.6378 4.14548 5.93928 
237 1 106.42 15.5181 3.98645 7.69411 
140 1 106.42 15.3906 5.93535 5.91106 
257 1 106.42 15.6893 7.72051 7.54404 
121 1 106.42 19.3917 4.03543 4.0968 
221 1 106.42 0.0544785 4.12662 7.77875 
139 1 106.42 17.4133 4.19437 5.81954 
124 1 106.42 19.5638 5.77871 5.85911 
238 1 106.42 17.7718 6.02128 7.80024 
159 1 106.42 17.6568 7.63095 5.71884 
141 1 106.42 0.217474 7.93277 4.10564 
143 1 106.42 2.01539 7.93237 6.03386 
161 1 106.42 0.123351 11.6881 3.89129 
147 1 106.42 6.03066 7.88203 5.80588 
148 1 106.42 4.00055 10.0162 5.74962 
167 1 106.42 5.94129 11.5647 5.95655 
245 1 106.42 4.2393 7.97514 7.7148 
151 1 106.42 9.8954 8.06223 5.60918 
249 1 106.42 8.03179 8.062 7.59868 
152 1 106.42 7.90327 10.0491 5.40525 
250 1 106.42 9.67979 9.94364 7.75442 
253 1 106.42 11.5683 8.05808 7.46465 
154 1 106.42 13.8976 10.0473 4.22976 
155 1 106.42 13.6021 8.09045 5.98971 
156 1 106.42 11.8864 10.1683 5.78665 
160 1 106.42 15.723 9.6339 6.02446 
254 1 106.42 13.6973 9.91517 7.76727 
158 1 106.42 17.5496 9.76811 4.22584 
144 1 106.42 0.0913453 9.99752 6.13711 
258 1 106.42 17.6428 9.75695 7.95809 
163 1 106.42 2.11475 11.8213 5.94945 
162 1 106.42 1.79426 13.6651 4.1519 
262 1 106.42 1.72875 13.8275 7.36558 
189 1 106.42 7.58599 15.6576 3.96025 
168 1 106.42 4.23975 13.4182 5.76348 
172 1 106.42 7.92314 13.4342 5.84512 
187 1 106.42 5.84031 15.333 5.89832 
170 1 106.42 10.1289 13.6707 4.00046 
171 1 106.42 9.94166 11.7056 5.94103 
176 1 106.42 11.8346 13.7688 6.10569 
175 1 106.42 13.8556 11.9512 6.12502 
193 1 106.42 11.922 15.4748 4.0079 
180 1 106.42 15.652 13.566 6.07306 
177 1 106.42 15.7643 11.6472 4.13951 
178 1 106.42 17.6468 13.73 3.99228 
179 1 106.42 17.7069 11.9059 5.67737 
164 1 106.42 19.2925 13.8429 5.76861 
261 1 106.42 19.4244 11.98 7.64835 
182 1 106.42 1.93714 17.535 3.96139 
103 1 106.42 2.12518 19.5634 6.05891 
183 1 106.42 2.12059 15.6604 5.70897 
105 1 106.42 3.9043 19.3368 3.99654 
186 1 106.42 5.52615 17.7016 4.14017 
188 1 106.42 3.99846 17.3673 6.29052 
192 1 106.42 7.62453 17.7113 5.91357 
113 1 106.42 11.444 19.2535 4.02783 
191 1 106.42 9.85001 15.8097 5.97702 
289 1 106.42 7.92509 15.676 7.76775 
213 1 106.42 11.7451 19.5932 7.55405 
290 1 106.42 9.79365 17.7416 7.68556 
115 1 106.42 13.7724 19.372 5.81502 
195 1 106.42 14.0079 15.7266 5.94893 
196 1 106.42 11.8083 17.5085 5.87524 
194 1 106.42 13.7025 17.5808 3.98073 
294 1 106.42 13.853 17.416 7.80766 
200 1 106.42 15.9942 17.6926 5.75594 
199 1 106.42 17.4702 15.6663 5.80774 
184 1 106.42 19.4418 17.9274 5.85226 
281 1 106.42 19.4561 15.9066 7.57794 
223 1 106.42 1.70433 3.79025 9.95597 
203 1 106.42 2.06262 0.225459 10.1181 
205 1 106.42 3.97164 -0.00386387 8.08938 
206 1 106.42 5.68938 2.43179 7.99213 
208 1 106.42 3.93056 2.15857 10.2985 
207 1 106.42 5.62716 0.0511149 9.87876 
212 1 106.42 7.70724 2.10556 9.61758 
306 1 106.42 6.15739 2.10906 11.5631 
209 1 106.42 7.88209 0.267318 7.84759 
216 1 106.42 11.3343 1.63196 9.86945 
235 1 106.42 13.4266 3.84674 9.78214 
220 1 106.42 15.6036 1.9152 9.63208 
314 1 106.42 13.6399 2.01534 11.5393 
201 1 106.42 19.4285 0.109188 8.0099 
204 1 106.42 19.3676 1.75968 9.62523 
318 1 106.42 17.6961 1.93792 11.4348 
321 1 106.42 19.4018 3.95428 11.6175 
225 1 106.42 3.75241 4.07076 8.04485 
228 1 106.42 3.59809 5.84773 9.76224 
322 1 106.42 2.07354 6.34179 11.6707 
229 1 106.42 7.83497 4.09845 7.83289 
226 1 106.42 6.15552 5.81498 7.8632 
227 1 106.42 5.7554 4.2688 10.0949 
326 1 106.42 5.7274 6.29754 11.7486 
329 1 106.42 7.68146 4.28381 11.4683 
233 1 106.42 11.5467 3.92673 7.88433 
230 1 106.42 9.74252 6.0027 7.88983 
232 1 106.42 7.9238 6.2829 9.81974 
231 1 106.42 9.68231 3.80668 9.72757 
236 1 106.42 11.6273 5.61409 9.74583 
330 1 106.42 9.98261 5.82485 11.6284 
234 1 106.42 13.4924 5.95337 7.91637 
240 1 106.42 15.5435 5.79946 9.93238 
255 1 106.42 13.6013 7.55122 9.89619 
337 1 106.42 15.8151 4.06193 11.6069 
224 1 106.42 19.6103 5.84232 9.84569 
239 1 106.42 17.6651 4.00168 9.49914 
259 1 106.42 17.607 7.77749 9.89218 
241 1 106.42 0.135396 8.05701 8.1318 
242 1 106.42 2.16306 9.93636 8.02082 
243 1 106.42 2.08248 8.00152 9.62454 
244 1 106.42 0.126662 9.71937 9.88742 
365 1 106.42 3.79362 11.7598 11.9419 
246 1 106.42 6.04108 9.83296 8.00951 
247 1 106.42 5.72208 7.88044 9.80219 
248 1 106.42 4.04318 10.0567 9.93694 
345 1 106.42 3.77642 8.03554 11.6544 
346 1 106.42 6.00501 9.89619 11.7012 
269 1 106.42 7.96715 11.7391 7.9205 
251 1 106.42 10.0729 8.17474 9.6482 
252 1 106.42 7.85827 9.80609 10.0216 
271 1 106.42 9.83191 11.7816 9.80618 
349 1 106.42 8.0924 8.02678 11.6863 
256 1 106.42 11.9346 9.93947 9.87129 
260 1 106.42 15.625 9.44008 9.4719 
354 1 106.42 13.762 9.70734 11.6065 
277 1 106.42 15.8492 11.6883 7.91371 
358 1 106.42 17.6599 9.74808 11.46 
285 1 106.42 3.81534 15.499 7.90663 
263 1 106.42 1.91399 12.0075 9.63964 
265 1 106.42 4.32821 11.8518 7.91482 
268 1 106.42 4.03547 13.6172 10.0266 
266 1 106.42 6.10304 13.683 7.86192 
267 1 106.42 6.17658 11.9061 10.0409 
270 1 106.42 10.0754 13.9972 7.93008 
272 1 106.42 8.14583 13.5173 9.98192 
275 1 106.42 13.864 11.7954 9.8928 
276 1 106.42 11.8523 13.5594 10.1721 
273 1 106.42 11.8372 11.7409 8.02886 
274 1 106.42 13.7928 13.6455 7.9687 
295 1 106.42 13.6694 15.405 9.90314 
374 1 106.42 13.9767 13.729 11.7264 
278 1 106.42 17.6069 13.4988 7.95967 
279 1 106.42 17.8843 11.7963 9.86588 
264 1 106.42 0.0259266 13.8116 9.8262 
297 1 106.42 15.9557 15.5805 7.8568 
280 1 106.42 15.7223 13.5355 9.99837 
299 1 106.42 17.8227 15.5422 9.73995 
397 1 106.42 15.8549 15.5826 11.598 
282 1 106.42 1.60403 17.6436 7.9966 
283 1 106.42 1.9177 15.7718 9.77434 
382 1 106.42 1.78331 17.7553 11.6593 
288 1 106.42 3.66654 17.7244 9.7543 
385 1 106.42 3.74442 15.8814 11.6756 
286 1 106.42 6.10085 17.7232 7.97617 
287 1 106.42 5.7333 15.7629 9.7255 
386 1 106.42 6.00307 17.5716 11.5419 
292 1 106.42 7.85244 17.6445 9.65164 
309 1 106.42 7.50746 19.6119 11.6368 
293 1 106.42 11.7931 15.7705 8.05052 
211 1 106.42 9.69247 19.3668 10.3762 
291 1 106.42 9.63279 15.7466 10.1032 
296 1 106.42 11.6045 17.8038 9.64541 
215 1 106.42 13.6455 19.4385 9.71727 
317 1 106.42 15.5569 19.4709 11.698 
300 1 106.42 15.4575 17.6912 9.73906 
219 1 106.42 17.3732 19.4918 9.68718 
301 1 106.42 19.4598 19.4597 11.7688 
284 1 106.42 19.2232 17.6395 9.92538 
298 1 106.42 17.3326 17.9295 7.82768 
398 1 106.42 17.2979 17.6484 11.5063 
302 1 106.42 1.66206 1.95823 11.9111 
323 1 106.42 1.64959 3.91213 13.769 
402 1 106.42 1.89003 2.00474 15.7353 
305 1 106.42 3.82793 0.0432867 11.9878 
308 1 106.42 3.78379 2.24304 13.5837 
425 1 106.42 3.87759 3.73651 15.5399 
312 1 106.42 7.70113 2.38865 13.5078 
307 1 106.42 6.17735 0.219355 13.8753 
333 1 106.42 11.7768 3.89792 11.8886 
310 1 106.42 9.51586 2.02866 11.8245 
410 1 106.42 9.5626 2.12258 15.5445 
316 1 106.42 11.6804 1.82814 13.577 
311 1 106.42 9.52853 0.0440521 13.602 
335 1 106.42 13.6823 3.77168 13.7012 
414 1 106.42 13.9027 1.76033 15.5029 
433 1 106.42 11.9178 3.80899 15.5534 
304 1 106.42 19.46 1.71407 13.9554 
320 1 106.42 15.7912 2.16216 13.5912 
339 1 106.42 17.8504 3.71203 13.7263 
325 1 106.42 3.69272 4.23013 11.8271 
341 1 106.42 0.143406 7.87311 11.7218 
328 1 106.42 3.68131 6.04347 13.8352 
324 1 106.42 0.296627 5.9641 13.7748 
327 1 106.42 5.7497 4.18127 13.8009 
331 1 106.42 9.79942 4.11742 13.8402 
332 1 106.42 7.7556 5.82923 13.7551 
430 1 106.42 9.78385 5.77283 15.6865 
334 1 106.42 13.6827 5.88635 11.9068 
336 1 106.42 11.8159 5.85059 13.8158 
355 1 106.42 13.9638 7.79756 13.874 
340 1 106.42 15.5848 5.92467 13.5632 
338 1 106.42 18.1176 5.97009 11.8439 
357 1 106.42 15.7659 7.74998 11.8098 
437 1 106.42 15.7889 3.98223 15.5356 
359 1 106.42 17.4969 7.6631 13.7897 
438 1 106.42 17.71 5.9171 15.6067 
342 1 106.42 1.89102 9.70012 11.9273 
343 1 106.42 1.69044 7.95398 13.8155 
361 1 106.42 0.0654551 11.654 11.7913 
363 1 106.42 1.83111 11.6329 13.6928 
442 1 106.42 1.85415 9.87849 15.5804 
348 1 106.42 4.16596 9.93718 13.5152 
347 1 106.42 6.18465 8.13588 13.8047 
353 1 106.42 11.6543 7.86233 11.825 
350 1 106.42 9.86445 9.82578 11.9863 
352 1 106.42 7.99632 9.96981 13.7037 
351 1 106.42 10.0159 7.81004 13.8854 
450 1 106.42 9.89076 10.0031 15.6567 
356 1 106.42 11.9206 9.55542 13.8032 
375 1 106.42 13.5619 11.5555 14.1102 
360 1 106.42 15.7015 9.97152 13.4508 
377 1 106.42 15.6042 11.5992 11.8834 
344 1 106.42 19.3983 9.73455 13.707 
379 1 106.42 17.7521 11.7066 13.4781 
458 1 106.42 17.6333 9.62213 15.6694 
362 1 106.42 1.83872 13.8499 11.8686 
364 1 106.42 0.0208653 13.7733 13.941 
368 1 106.42 3.83516 13.6131 13.6554 
383 1 106.42 2.2302 15.6681 13.4315 
462 1 106.42 2.10612 13.7989 15.5997 
389 1 106.42 7.8673 15.3155 11.8266 
366 1 106.42 5.739 13.8413 11.7881 
367 1 106.42 5.90364 11.705 13.5851 
387 1 106.42 5.7663 15.6746 13.6771 
372 1 106.42 8.16349 13.6541 13.7666 
370 1 106.42 9.90968 13.9369 11.9581 
369 1 106.42 8.10838 11.8762 11.9266 
371 1 106.42 9.76274 11.7833 13.8021 
391 1 106.42 9.97228 15.519 13.936 
489 1 106.42 7.9919 15.3458 15.6256 
470 1 106.42 10.1627 13.5688 15.6814 
373 1 106.42 11.999 11.6263 12.1807 
376 1 106.42 12.1757 13.7769 13.6288 
393 1 106.42 11.7364 15.6999 11.8018 
395 1 106.42 14.0268 15.4664 13.5868 
380 1 106.42 15.8504 13.6238 13.787 
378 1 106.42 17.7336 13.6819 11.8184 
478 1 106.42 17.5095 13.7414 15.7233 
303 1 106.42 2.16127 19.5021 13.9508 
384 1 106.42 19.6044 17.6605 13.911 
481 1 106.42 0.337455 15.846 15.4398 
388 1 106.42 4.40647 17.7214 13.7598 
392 1 106.42 7.68305 17.4478 13.6605 
390 1 106.42 9.71693 17.3863 12.0967 
490 1 106.42 9.93837 17.5715 15.7219 
413 1 106.42 11.6521 19.6006 15.6899 
394 1 106.42 13.9878 17.463 12.0674 
315 1 106.42 13.7839 19.6359 13.6909 
313 1 106.42 11.7443 19.3062 11.8883 
396 1 106.42 11.909 17.7334 13.8596 
400 1 106.42 15.7288 17.5798 13.6872 
494 1 106.42 13.8164 17.8299 15.5624 
381 1 106.42 19.4718 15.7146 12.1825 
319 1 106.42 17.6444 19.4331 13.7997 
399 1 106.42 17.4491 15.714 13.6874 
417 1 106.42 15.6859 19.5193 15.6005 
498 1 106.42 17.8365 17.5687 15.566 
1 1 106.42 19.596 0.24178 19.384 
401 1 106.42 0.213174 0.0748706 15.8858 
403 1 106.42 2.00978 0.233983 17.6568 
408 1 106.42 4.1316 1.91625 17.7786 
406 1 106.42 5.94334 1.98145 15.7019 
407 1 106.42 6.13937 0.163707 17.7189 
429 1 106.42 7.48333 3.791 15.6159 
405 1 106.42 4.04434 0.218431 15.6523 
33 1 106.42 11.6681 3.85333 19.5961 
412 1 106.42 7.87912 1.97996 17.7313 
416 1 106.42 11.5403 1.996 17.372 
14 1 106.42 13.5587 1.97036 19.5098 
415 1 106.42 13.1087 -0.0116954 17.8953 
37 1 106.42 15.4831 3.94737 19.5687 
420 1 106.42 15.3819 1.66572 17.5518 
435 1 106.42 13.9699 3.7752 17.5853 
421 1 106.42 19.4635 3.723 15.8872 
418 1 106.42 17.4891 1.99156 15.7847 
404 1 106.42 19.5678 2.09203 17.6026 
18 1 106.42 17.7687 2.06271 19.5962 
419 1 106.42 17.5969 19.5538 17.5092 
439 1 106.42 17.4871 3.77175 17.4372 
423 1 106.42 2.05346 4.01352 17.8396 
22 1 106.42 1.95169 6.07676 19.4647 
422 1 106.42 1.8786 5.95372 15.8528 
426 1 106.42 6.02085 5.92802 15.8363 
449 1 106.42 7.7284 7.87593 15.6806 
29 1 106.42 7.47874 4.07146 19.3354 
428 1 106.42 4.0978 6.1218 17.5815 
427 1 106.42 5.70615 3.90057 17.4878 
26 1 106.42 5.7714 6.02022 19.6249 
432 1 106.42 7.76507 5.97809 17.7009 
431 1 106.42 9.62474 4.04422 17.5023 
53 1 106.42 11.6867 7.80848 19.367 
30 1 106.42 9.67013 5.8831 19.5102 
453 1 106.42 11.802 7.57927 15.6966 
434 1 106.42 13.8675 5.77935 15.8772 
436 1 106.42 11.7914 5.58262 17.7541 
455 1 106.42 13.9533 7.59882 17.9374 
57 1 106.42 16.0394 7.79691 0.0479893 
424 1 106.42 19.2949 5.71978 17.5468 
441 1 106.42 19.521 7.8534 15.6784 
440 1 106.42 15.8304 5.91263 17.8573 
443 1 106.42 1.87208 7.82832 17.4478 
448 1 106.42 3.73904 9.97433 17.7956 
69 1 106.42 7.866 11.7141 19.5636 
446 1 106.42 5.72187 10.0679 15.7985 
445 1 106.42 4.14401 7.94399 15.7598 
447 1 106.42 5.95227 7.96707 17.8999 
467 1 106.42 5.92252 11.4726 17.9129 
49 1 106.42 7.81236 7.9749 19.6261 
451 1 106.42 9.80268 8.02938 17.2836 
452 1 106.42 7.86833 9.76449 17.7131 
471 1 106.42 9.71773 11.7364 17.7621 
457 1 106.42 15.7041 7.93692 16.0751 
454 1 106.42 13.5756 9.44879 15.889 
456 1 106.42 11.6837 9.61676 17.5815 
475 1 106.42 13.5807 11.7177 17.4691 
461 1 106.42 19.5603 11.8102 15.897 
477 1 106.42 15.9167 11.5272 15.959 
459 1 106.42 17.6071 7.93492 17.8826 
460 1 106.42 16.0959 9.79072 17.9007 
444 1 106.42 19.6076 9.84501 17.709 
479 1 106.42 17.5932 11.7317 17.8345 
62 1 106.42 1.97598 13.6671 19.4155 
463 1 106.42 1.88478 11.8299 17.65 
468 1 106.42 3.6342 13.8254 17.7148 
85 1 106.42 3.81079 15.6507 19.6081 
466 1 106.42 5.88289 13.6615 15.7715 
465 1 106.42 3.96789 11.811 15.6516 
472 1 106.42 7.66242 13.6857 17.996 
469 1 106.42 7.83261 11.8302 15.7675 
89 1 106.42 7.9275 15.6291 19.4472 
473 1 106.42 11.6469 11.6795 15.8156 
73 1 106.42 11.7266 11.935 19.5171 
476 1 106.42 11.8966 13.9205 17.6716 
493 1 106.42 12.1931 15.6522 15.5956 
74 1 106.42 13.8855 13.798 19.5128 
474 1 106.42 14.0535 13.6986 15.8112 
78 1 106.42 17.6676 13.759 19.5274 
464 1 106.42 19.5281 13.5781 17.5301 
480 1 106.42 15.8097 13.7883 17.7173 
5 1 106.42 4.04319 19.4269 19.5427 
483 1 106.42 2.00358 15.7854 17.6895 
482 1 106.42 2.11036 17.7395 15.8011 
484 1 106.42 0.108374 17.6984 17.6024 
86 1 106.42 6.03692 17.4899 19.4414 
485 1 106.42 4.22487 15.7342 15.8151 
486 1 106.42 6.08809 18.063 15.8265 
488 1 106.42 4.12581 17.7107 17.5678 
487 1 106.42 6.02314 15.8451 17.3562 
9 1 106.42 8.17398 19.2806 19.3859 
409 1 106.42 7.88738 19.5264 15.8435 
491 1 106.42 9.81073 15.6346 17.6036 
492 1 106.42 8.19811 17.6951 17.4902 
411 1 106.42 10.1583 19.5135 17.9213 
496 1 106.42 11.8331 17.5049 17.6608 
495 1 106.42 13.9304 16.0041 17.6702 
97 1 106.42 15.9374 15.8954 19.3098 
497 1 106.42 15.8432 15.8344 15.6588 
499 1 106.42 18.1762 15.8569 17.5881 
500 1 106.42 15.8937 17.8091 17.8066 
