ITEM: TIMESTEP
81800
ITEM: NUMBER OF ATOMS
501
ITEM: BOX BOUNDS pp pp pp
0.0000000000000000e+00 1.9629018200000001e+01
0.0000000000000000e+00 1.9629018200000001e+01
0.0000000000000000e+00 1.9629018200000001e+01
ITEM: ATOMS id type mass x y z 
2 1 106.42 1.8854 2.12823 0.0632655 
8 1 106.42 4.05734 1.81068 1.80924 
23 1 106.42 1.89199 3.69892 2.18294 
125 1 106.42 3.98579 3.76605 3.85821 
12 1 106.42 7.8657 1.81703 1.66714 
106 1 106.42 5.64535 1.80467 3.63597 
129 1 106.42 7.59469 3.62376 3.5596 
6 1 106.42 6.14 1.86665 -0.0871275 
16 1 106.42 11.7163 1.73567 2.16653 
110 1 106.42 9.69686 2.15071 3.79986 
10 1 106.42 9.71517 2.10456 -0.107831 
20 1 106.42 15.6731 2.17663 2.04301 
114 1 106.42 13.5386 1.96008 4.07553 
15 1 106.42 13.6022 -0.0633218 2.1357 
17 1 106.42 15.8575 0.356299 0.0289653 
4 1 106.42 19.8206 1.86149 2.03382 
39 1 106.42 17.6231 3.99667 1.78857 
117 1 106.42 15.6385 0.06296 3.79901 
118 1 106.42 17.5316 1.78854 3.57775 
101 1 106.42 19.6152 19.6036 3.9926 
25 1 106.42 4.01125 4.05521 -0.0292983 
21 1 106.42 -0.0061679 4.0551 19.4007 
28 1 106.42 3.99906 5.95206 1.84598 
24 1 106.42 0.285747 5.82649 2.04075 
43 1 106.42 2.09896 7.89327 1.9627 
122 1 106.42 2.1951 6.00411 3.98669 
27 1 106.42 5.79086 3.84618 2.02019 
32 1 106.42 8.04568 5.8524 1.95472 
47 1 106.42 5.88093 7.84643 2.1668 
31 1 106.42 9.8747 3.96779 1.98184 
36 1 106.42 11.7278 6.01336 2.12424 
130 1 106.42 9.65514 5.89169 3.8736 
501 2 1.01 10.003 9.07345 18.3969 
137 1 106.42 15.4884 3.94733 3.85938 
35 1 106.42 13.3087 3.6973 1.8896 
40 1 106.42 15.478 5.73172 2.02071 
55 1 106.42 13.9549 8.02234 1.67542 
157 1 106.42 15.6234 7.78293 4.07439 
134 1 106.42 13.7038 5.91388 3.72017 
34 1 106.42 13.7421 5.88724 0.0572515 
138 1 106.42 17.5612 5.76762 3.75368 
38 1 106.42 17.867 5.80203 0.229249 
41 1 106.42 19.6967 7.73372 0.159809 
44 1 106.42 -0.144561 9.63352 2.03358 
63 1 106.42 2.02906 11.7881 1.89543 
45 1 106.42 3.81817 7.92539 19.3364 
48 1 106.42 3.85 9.89074 1.63534 
142 1 106.42 2.20894 9.71912 3.93222 
42 1 106.42 1.98031 9.85795 0.00753867 
149 1 106.42 7.91034 7.70802 3.89804 
146 1 106.42 5.87791 9.68489 3.83009 
46 1 106.42 5.6885 9.88427 0.125496 
52 1 106.42 8.18011 9.81829 2.131 
51 1 106.42 10.1202 7.97895 2.31182 
150 1 106.42 10.0353 9.9649 3.87157 
50 1 106.42 10.0106 9.63094 0.211272 
56 1 106.42 11.9936 9.9551 1.95061 
54 1 106.42 13.7917 9.9908 -0.127289 
153 1 106.42 12.0661 8.11751 3.88685 
60 1 106.42 15.9871 9.67829 2.2907 
59 1 106.42 17.7185 7.77606 2.34739 
58 1 106.42 17.7271 9.8073 0.257038 
77 1 106.42 15.8141 11.6303 0.234886 
65 1 106.42 3.9803 11.7183 -0.135954 
64 1 106.42 0.029361 13.8915 1.87148 
68 1 106.42 3.72193 13.5012 2.25055 
165 1 106.42 3.97293 11.5853 3.96245 
67 1 106.42 5.89724 11.7317 2.09872 
72 1 106.42 7.76175 13.8369 1.90576 
166 1 106.42 5.97185 13.8587 3.64812 
66 1 106.42 5.84432 13.8594 0.112286 
169 1 106.42 8.0084 12.0422 3.73507 
71 1 106.42 9.92309 11.8483 1.94247 
91 1 106.42 9.8114 15.5213 1.91266 
70 1 106.42 10.0448 13.9518 0.0538773 
76 1 106.42 12.0413 13.7653 1.94216 
75 1 106.42 13.8302 11.6645 1.77533 
93 1 106.42 11.9453 15.7862 -0.0568054 
80 1 106.42 15.9314 13.7922 1.80577 
95 1 106.42 14.0578 15.7598 1.68992 
174 1 106.42 13.8129 13.7597 3.91417 
173 1 106.42 11.8341 11.7818 3.7586 
79 1 106.42 17.6167 12.0564 2.32376 
99 1 106.42 17.8315 15.7468 1.90617 
181 1 106.42 19.5959 15.7042 3.91718 
61 1 106.42 19.6024 11.9186 0.358486 
83 1 106.42 2.06264 15.8708 1.87788 
81 1 106.42 0.195503 15.6552 0.25066 
3 1 106.42 1.92826 19.5869 2.12795 
82 1 106.42 1.87367 18.0322 19.5032 
88 1 106.42 3.88741 17.5752 1.86633 
185 1 106.42 4.14465 15.7369 3.89859 
87 1 106.42 5.77789 15.8509 1.8983 
7 1 106.42 6.00003 19.2402 1.84849 
92 1 106.42 7.81799 17.404 1.94156 
11 1 106.42 9.68196 19.5692 1.92996 
90 1 106.42 9.9012 17.3453 0.0518739 
13 1 106.42 11.6773 19.3388 0.399002 
190 1 106.42 9.63447 17.3538 3.8679 
96 1 106.42 11.9107 17.3039 1.95471 
100 1 106.42 15.7303 17.8691 1.82216 
94 1 106.42 13.9165 17.9498 0.0644749 
197 1 106.42 15.6458 15.7856 3.81242 
19 1 106.42 17.6365 19.5438 1.69225 
84 1 106.42 19.6648 17.8956 1.99404 
198 1 106.42 17.5716 17.5528 3.88666 
98 1 106.42 17.9602 17.6364 19.4801 
102 1 106.42 1.98673 1.84665 4.20911 
123 1 106.42 1.97916 4.0107 5.78502 
202 1 106.42 1.9078 2.1151 7.79765 
108 1 106.42 3.91397 1.90215 6.32945 
112 1 106.42 7.57235 1.98371 5.8586 
107 1 106.42 5.77812 0.0380193 5.94266 
109 1 106.42 7.66119 0.00707897 3.62124 
127 1 106.42 5.6667 3.71151 6.0045 
111 1 106.42 9.45254 19.5823 5.59197 
116 1 106.42 11.7805 1.89549 5.89178 
131 1 106.42 9.92812 3.88178 5.8647 
210 1 106.42 9.7738 1.7297 7.89137 
133 1 106.42 11.7702 4.0562 3.9438 
120 1 106.42 15.3925 2.32229 5.89939 
214 1 106.42 13.3353 1.91742 7.83491 
217 1 106.42 15.5701 0.144446 7.58991 
104 1 106.42 19.1326 2.11846 5.91795 
218 1 106.42 17.5531 2.04661 7.74255 
119 1 106.42 17.5366 19.7166 5.67813 
222 1 106.42 2.0057 5.95317 7.72855 
126 1 106.42 5.96956 5.73337 4.2179 
128 1 106.42 4.10787 5.73567 6.24476 
145 1 106.42 4.27311 7.60037 3.77412 
132 1 106.42 7.86225 5.95932 6.00063 
136 1 106.42 11.6638 6.00167 5.89197 
135 1 106.42 13.5124 4.0327 6.02428 
237 1 106.42 15.5388 3.93337 7.87113 
140 1 106.42 15.3445 6.05957 5.7302 
257 1 106.42 15.7462 7.78515 7.78143 
121 1 106.42 19.6369 3.98977 3.91209 
221 1 106.42 0.105381 3.9723 7.97276 
139 1 106.42 17.3796 4.14907 6.09066 
124 1 106.42 19.7034 6.0034 6.03718 
238 1 106.42 17.7483 5.89541 7.86332 
159 1 106.42 17.7865 7.54088 5.85683 
141 1 106.42 0.385932 7.98442 4.27989 
143 1 106.42 2.06778 7.8609 6.18581 
161 1 106.42 0.194636 11.8623 3.77859 
147 1 106.42 6.16837 7.89312 5.90357 
148 1 106.42 4.05454 9.86356 5.69949 
167 1 106.42 5.99505 11.5873 6.03741 
245 1 106.42 4.13958 7.92698 7.59912 
151 1 106.42 9.8504 8.20911 5.56848 
249 1 106.42 8.11091 8.14932 7.64952 
152 1 106.42 7.79922 9.98626 5.50846 
250 1 106.42 9.8227 9.98495 7.73101 
253 1 106.42 11.666 7.9139 7.42799 
154 1 106.42 13.904 9.86105 4.30585 
155 1 106.42 13.5875 7.92628 5.8969 
156 1 106.42 11.8383 10.0284 5.69273 
160 1 106.42 15.8295 9.54729 6.07409 
254 1 106.42 13.623 9.98624 7.89956 
158 1 106.42 17.5785 9.63292 4.39158 
144 1 106.42 0.260415 9.99609 6.01336 
258 1 106.42 17.6462 9.92671 8.23321 
163 1 106.42 1.96801 11.7047 6.05866 
162 1 106.42 1.9168 13.7608 3.98474 
262 1 106.42 1.79963 13.848 7.53369 
189 1 106.42 7.76311 15.7178 3.9846 
168 1 106.42 4.21425 13.438 5.64428 
172 1 106.42 8.14589 13.3472 5.7957 
187 1 106.42 5.82832 15.4336 5.99829 
170 1 106.42 10.0934 13.9083 4.03114 
171 1 106.42 9.99879 11.6419 5.96882 
176 1 106.42 12.0365 13.7524 6.10024 
175 1 106.42 13.8039 11.84 6.07789 
193 1 106.42 11.9387 15.736 3.90781 
180 1 106.42 15.7144 13.7588 6.04615 
177 1 106.42 15.6568 11.5057 4.04581 
178 1 106.42 17.4124 13.7729 3.90326 
179 1 106.42 17.6646 11.7622 5.85061 
164 1 106.42 19.511 13.8649 5.64407 
261 1 106.42 19.5942 11.8558 7.513 
182 1 106.42 1.82797 17.5519 3.9665 
103 1 106.42 2.10434 19.5714 6.11835 
183 1 106.42 2.13413 15.6405 5.64842 
105 1 106.42 3.89708 19.5153 3.94965 
186 1 106.42 5.92873 17.8168 4.05799 
188 1 106.42 3.96649 17.4899 6.23649 
192 1 106.42 7.57342 17.554 5.8977 
113 1 106.42 11.2458 19.4167 4.02111 
191 1 106.42 9.8024 15.8387 6.09519 
289 1 106.42 7.90109 15.513 7.82253 
213 1 106.42 11.6691 19.4695 7.50043 
290 1 106.42 9.59801 17.7494 7.71008 
115 1 106.42 13.6373 19.4708 5.77438 
195 1 106.42 14.147 15.6269 5.85875 
196 1 106.42 11.815 17.4333 5.71913 
194 1 106.42 13.8814 17.6582 3.93001 
294 1 106.42 13.8516 17.6619 7.76382 
200 1 106.42 15.9254 17.664 5.84752 
199 1 106.42 17.5543 15.5216 5.7977 
184 1 106.42 19.6519 17.8751 5.77322 
281 1 106.42 19.4475 15.9677 7.7325 
223 1 106.42 1.78958 3.83925 9.8357 
203 1 106.42 1.83826 0.217088 9.88115 
205 1 106.42 3.86826 19.5997 7.96045 
206 1 106.42 5.51419 2.20359 8.19264 
208 1 106.42 3.75475 2.20449 10.2654 
207 1 106.42 5.49952 0.131174 9.90316 
212 1 106.42 7.7878 2.02665 9.47206 
306 1 106.42 5.95307 2.02873 11.5982 
209 1 106.42 7.77627 0.160774 7.87313 
216 1 106.42 11.7217 1.58213 9.69154 
235 1 106.42 13.396 3.99329 9.7085 
220 1 106.42 15.6205 1.80601 9.63961 
314 1 106.42 13.5762 1.96073 11.4752 
201 1 106.42 19.5256 -0.150455 7.85354 
204 1 106.42 19.3539 1.97792 9.65002 
318 1 106.42 17.8064 1.96473 11.4729 
321 1 106.42 19.4678 3.91476 11.5843 
225 1 106.42 3.6861 4.11145 8.09454 
228 1 106.42 3.66701 6.1023 9.82289 
322 1 106.42 1.86253 5.98848 11.6847 
229 1 106.42 8.03363 4.05335 7.74207 
226 1 106.42 6.10189 5.76927 7.88237 
227 1 106.42 5.70435 4.24992 9.79256 
326 1 106.42 5.77341 6.28573 11.8611 
329 1 106.42 7.73973 4.48692 11.6399 
233 1 106.42 11.4492 3.81098 7.76792 
230 1 106.42 9.82113 6.03523 7.80494 
232 1 106.42 7.99552 6.2657 9.60511 
231 1 106.42 9.76068 3.60283 9.64925 
236 1 106.42 11.6419 5.79141 9.83171 
330 1 106.42 9.82676 5.88475 11.7069 
234 1 106.42 13.5662 5.97045 7.90912 
240 1 106.42 15.5093 5.86755 9.83128 
255 1 106.42 13.5609 7.49439 9.79852 
337 1 106.42 15.7598 4.0835 11.6107 
224 1 106.42 0.11819 5.98639 9.76608 
239 1 106.42 17.6875 3.96363 9.69339 
259 1 106.42 17.7407 7.77056 9.93575 
241 1 106.42 -0.0173293 7.99974 8.04293 
242 1 106.42 2.38833 9.98994 7.91741 
243 1 106.42 2.08875 8.15821 9.77682 
244 1 106.42 -0.0988189 9.80803 9.97361 
365 1 106.42 3.87957 11.852 12.1061 
246 1 106.42 5.8125 9.95677 8.02274 
247 1 106.42 5.76244 7.58972 9.84701 
248 1 106.42 3.92239 10.2165 9.88345 
345 1 106.42 3.6858 8.04032 11.782 
346 1 106.42 5.99965 9.82949 11.6324 
269 1 106.42 7.96967 11.8943 7.98875 
251 1 106.42 10.1076 8.30134 9.70729 
252 1 106.42 7.92146 9.70329 9.80521 
271 1 106.42 9.94026 11.8187 9.78634 
349 1 106.42 7.97077 7.81083 11.7689 
256 1 106.42 11.9035 9.9406 9.78276 
260 1 106.42 15.5346 9.33064 9.7449 
354 1 106.42 13.8082 9.63047 11.7646 
277 1 106.42 15.7058 11.6514 7.89634 
358 1 106.42 17.5114 9.72946 11.5786 
285 1 106.42 3.95837 15.6542 7.90179 
263 1 106.42 1.89559 12.1059 9.74975 
265 1 106.42 4.18302 11.8804 7.8422 
268 1 106.42 4.03069 13.5736 9.86957 
266 1 106.42 6.26276 13.7037 7.88249 
267 1 106.42 6.03109 11.7464 9.96442 
270 1 106.42 9.80547 13.8803 7.92855 
272 1 106.42 7.93505 13.6611 10.065 
275 1 106.42 13.8911 11.7137 9.78338 
276 1 106.42 11.8316 13.6719 10.0528 
273 1 106.42 11.7672 11.6459 7.9618 
274 1 106.42 13.824 13.7377 7.96956 
295 1 106.42 13.7899 15.5443 9.81877 
374 1 106.42 13.927 13.5603 11.7853 
278 1 106.42 17.6773 13.6428 8.05557 
279 1 106.42 17.5893 11.7076 9.9506 
264 1 106.42 0.143107 13.7492 9.67146 
297 1 106.42 15.8212 15.5996 7.86753 
280 1 106.42 15.6711 13.587 9.80402 
299 1 106.42 17.8555 15.3782 9.74159 
397 1 106.42 15.9406 15.6669 11.4831 
282 1 106.42 1.74032 17.7436 8.17352 
283 1 106.42 1.74215 15.6976 9.82408 
382 1 106.42 1.78513 17.6799 11.9129 
288 1 106.42 3.56196 17.5862 9.81406 
385 1 106.42 3.74045 15.714 11.69 
286 1 106.42 5.93415 17.6493 7.77651 
287 1 106.42 5.73585 15.5681 9.89704 
386 1 106.42 6.06432 17.5954 11.5241 
292 1 106.42 8.02125 17.8071 9.66898 
309 1 106.42 7.6031 19.6581 11.6016 
293 1 106.42 11.869 15.5482 8.323 
211 1 106.42 9.56577 19.489 10.2023 
291 1 106.42 9.62927 15.6234 9.94924 
296 1 106.42 11.6272 17.6562 9.73795 
215 1 106.42 13.5098 19.4061 9.56239 
317 1 106.42 15.6942 19.6084 11.935 
300 1 106.42 15.4256 17.5797 9.67862 
219 1 106.42 17.2892 19.5648 9.61169 
301 1 106.42 19.5886 19.5511 11.8357 
284 1 106.42 19.3554 17.5955 9.89542 
298 1 106.42 17.3593 17.8476 7.71093 
398 1 106.42 17.4452 17.6914 11.4111 
302 1 106.42 1.64499 1.89992 12.0638 
323 1 106.42 1.51267 3.90289 13.7299 
402 1 106.42 2.03681 2.3453 15.8357 
305 1 106.42 3.90537 0.0213413 11.903 
308 1 106.42 3.78229 2.19413 13.3375 
425 1 106.42 3.8463 3.87004 15.5072 
312 1 106.42 7.77572 2.29905 13.5881 
307 1 106.42 6.38422 0.186183 13.9329 
333 1 106.42 11.7737 3.8537 11.9501 
310 1 106.42 9.43953 1.98756 11.7691 
410 1 106.42 9.76761 1.89671 15.635 
316 1 106.42 11.7842 1.89371 13.5569 
311 1 106.42 9.52795 19.4596 13.6094 
335 1 106.42 13.6531 3.83731 13.9059 
414 1 106.42 13.8221 1.79161 15.5885 
433 1 106.42 11.9251 4.18477 15.7274 
304 1 106.42 19.4061 1.74341 13.8702 
320 1 106.42 15.5528 2.0469 13.5497 
339 1 106.42 17.7069 3.59226 13.7122 
325 1 106.42 3.63572 4.17445 11.8008 
341 1 106.42 -0.102464 8.03817 11.6256 
328 1 106.42 3.80724 6.13467 13.7384 
324 1 106.42 0.185376 5.96888 13.708 
327 1 106.42 5.86411 4.19265 13.6443 
331 1 106.42 9.63806 4.20034 13.8109 
332 1 106.42 7.58326 5.90162 13.7895 
430 1 106.42 9.59385 5.89926 15.7903 
334 1 106.42 13.6967 5.95519 12.0357 
336 1 106.42 11.7447 5.857 13.612 
355 1 106.42 14.096 7.94953 13.984 
340 1 106.42 15.5485 6.00186 13.6575 
338 1 106.42 17.9456 5.83439 11.9514 
357 1 106.42 15.6095 7.76636 11.6943 
437 1 106.42 15.6098 4.05115 15.4869 
359 1 106.42 17.6887 7.81821 13.8076 
438 1 106.42 17.5547 6.03915 15.6327 
342 1 106.42 1.80155 9.85194 11.9652 
343 1 106.42 1.86407 8.00409 13.752 
361 1 106.42 -0.0220308 11.6362 11.7228 
363 1 106.42 1.74964 11.72 13.8024 
442 1 106.42 1.87671 9.78365 15.6741 
348 1 106.42 4.03905 9.7938 13.7063 
347 1 106.42 6.09389 7.953 13.8308 
353 1 106.42 11.703 7.7848 11.8162 
350 1 106.42 9.83093 9.80501 11.8847 
352 1 106.42 7.73562 9.79288 13.7298 
351 1 106.42 9.88027 7.70985 13.9262 
450 1 106.42 9.80914 9.85245 15.6577 
356 1 106.42 11.8367 9.62298 13.9732 
375 1 106.42 13.6099 11.6266 14.1691 
360 1 106.42 15.7529 9.84696 13.5857 
377 1 106.42 15.8022 11.5987 11.6364 
344 1 106.42 19.2902 9.92627 13.552 
379 1 106.42 17.6902 11.6832 13.5837 
458 1 106.42 17.5111 9.76831 15.6052 
362 1 106.42 1.85278 13.8931 11.7495 
364 1 106.42 19.546 13.7423 13.9549 
368 1 106.42 3.87759 13.7218 13.7147 
383 1 106.42 2.11785 15.9479 13.7045 
462 1 106.42 2.09181 13.7674 15.5358 
389 1 106.42 7.76654 15.4622 11.8324 
366 1 106.42 5.87055 13.8533 11.8 
367 1 106.42 5.99718 11.7439 13.663 
387 1 106.42 5.74308 15.5665 13.8521 
372 1 106.42 8.08757 13.7651 13.878 
370 1 106.42 9.98672 13.7966 11.9124 
369 1 106.42 8.0484 11.8229 11.8695 
371 1 106.42 9.71414 11.6599 13.8254 
391 1 106.42 9.98768 15.6623 13.9493 
489 1 106.42 7.9375 15.3921 15.7937 
470 1 106.42 10.0928 13.7034 15.788 
373 1 106.42 12.0895 11.4182 12.0237 
376 1 106.42 12.036 13.8097 13.5217 
393 1 106.42 11.741 15.9277 11.8069 
395 1 106.42 14.0186 15.4243 13.6419 
380 1 106.42 15.9822 13.4139 13.6653 
378 1 106.42 17.6513 13.8038 11.8333 
478 1 106.42 17.4343 13.8022 15.8581 
303 1 106.42 2.08052 19.7891 13.9058 
384 1 106.42 19.6297 17.7778 13.8752 
481 1 106.42 0.182208 15.6622 15.4881 
388 1 106.42 4.15724 17.6654 13.8365 
392 1 106.42 7.58309 17.3486 13.8262 
390 1 106.42 9.79671 17.4467 11.8265 
490 1 106.42 10.0333 17.537 15.691 
413 1 106.42 11.5794 19.6637 15.6819 
394 1 106.42 13.8223 17.3571 11.9041 
315 1 106.42 13.7196 0.138328 13.5504 
313 1 106.42 11.6474 19.4247 11.8407 
396 1 106.42 11.6962 17.8192 13.8869 
400 1 106.42 15.854 17.47 13.659 
494 1 106.42 13.753 17.8407 15.7017 
381 1 106.42 19.6594 15.5119 12.0761 
319 1 106.42 17.6541 19.5815 13.7585 
399 1 106.42 17.5025 15.4932 13.7021 
417 1 106.42 15.6142 19.478 15.6925 
498 1 106.42 17.7665 17.5046 15.5515 
1 1 106.42 19.5727 0.259206 19.3422 
401 1 106.42 0.0886599 0.0244319 15.8755 
403 1 106.42 2.20796 0.343843 17.5175 
408 1 106.42 4.10205 1.94478 17.8536 
406 1 106.42 5.90707 2.00103 15.4761 
407 1 106.42 6.13911 -0.00846227 17.8047 
429 1 106.42 7.65083 3.92837 15.5737 
405 1 106.42 4.11797 0.130916 15.506 
33 1 106.42 11.6921 3.70456 19.6168 
412 1 106.42 7.88761 1.98629 17.7126 
416 1 106.42 11.5566 1.90807 17.3192 
14 1 106.42 13.504 1.84314 19.6585 
415 1 106.42 13.1492 19.5777 17.7679 
37 1 106.42 15.6573 3.95744 19.6078 
420 1 106.42 15.3699 1.59795 17.5647 
435 1 106.42 13.6117 3.7684 17.627 
421 1 106.42 19.446 3.97827 15.716 
418 1 106.42 17.4694 1.80342 15.7592 
404 1 106.42 19.651 1.97783 17.6294 
18 1 106.42 17.7032 2.14037 19.5776 
419 1 106.42 17.5708 19.4767 17.3999 
439 1 106.42 17.4217 3.75847 17.5935 
423 1 106.42 1.92136 4.05655 17.6662 
22 1 106.42 1.95846 5.98004 19.5732 
422 1 106.42 1.7548 5.87338 15.7095 
426 1 106.42 5.93022 5.99378 15.9254 
449 1 106.42 7.87014 7.97991 15.6491 
29 1 106.42 7.3144 4.06692 19.5278 
428 1 106.42 4.0855 6.01448 17.624 
427 1 106.42 5.82333 3.85111 17.4397 
26 1 106.42 5.77025 6.03275 0.139586 
432 1 106.42 7.87923 5.86936 17.6686 
431 1 106.42 9.52902 3.93015 17.5961 
53 1 106.42 11.7893 7.74721 19.6051 
30 1 106.42 9.83436 5.97402 19.6719 
453 1 106.42 11.9704 7.56197 15.7649 
434 1 106.42 13.7259 5.81222 15.8755 
436 1 106.42 11.7158 5.69546 17.8567 
455 1 106.42 14.0008 7.54298 17.8596 
57 1 106.42 16.1918 7.94275 0.284014 
424 1 106.42 19.2429 5.81765 17.4906 
441 1 106.42 19.5075 7.88968 15.6702 
440 1 106.42 15.9514 5.75182 17.9306 
443 1 106.42 1.96366 7.81768 17.6176 
448 1 106.42 3.87937 9.94606 17.7141 
69 1 106.42 7.96604 11.785 19.6734 
446 1 106.42 5.78839 9.81678 15.8374 
445 1 106.42 3.9561 7.84654 15.5949 
447 1 106.42 5.97018 7.98584 17.7815 
467 1 106.42 5.98831 11.7561 17.8933 
49 1 106.42 7.88032 8.0044 0.155263 
451 1 106.42 9.66812 7.99248 17.3716 
452 1 106.42 7.91073 9.72608 17.753 
471 1 106.42 9.64332 11.8027 17.7065 
457 1 106.42 15.7761 7.88509 16.1574 
454 1 106.42 13.7575 9.43287 15.9037 
456 1 106.42 11.5606 9.75149 17.5784 
475 1 106.42 13.5632 11.7275 17.6172 
461 1 106.42 19.5679 11.777 15.731 
477 1 106.42 15.7641 11.5912 15.8938 
459 1 106.42 17.8268 7.88009 17.7507 
460 1 106.42 15.9116 9.97203 17.8619 
444 1 106.42 0.127617 9.99099 17.6567 
479 1 106.42 17.6929 12.035 17.772 
62 1 106.42 1.76455 13.7289 19.4438 
463 1 106.42 2.162 11.561 17.5768 
468 1 106.42 3.89426 13.7669 17.7378 
85 1 106.42 3.80358 15.634 19.5339 
466 1 106.42 5.7414 13.6092 15.8451 
465 1 106.42 3.91975 11.7605 15.4614 
472 1 106.42 7.87304 13.6151 17.8477 
469 1 106.42 7.81179 11.8754 15.7199 
89 1 106.42 7.80491 15.8023 19.5535 
473 1 106.42 11.6513 11.5481 15.6675 
73 1 106.42 11.6837 11.7112 19.4476 
476 1 106.42 11.9506 14.0684 17.6975 
493 1 106.42 12.0453 15.8867 15.3961 
74 1 106.42 13.9 13.7253 19.6046 
474 1 106.42 14.349 13.7135 15.7525 
78 1 106.42 17.6929 13.9625 19.4885 
464 1 106.42 19.5632 13.7379 17.5238 
480 1 106.42 15.7503 13.8012 17.7243 
5 1 106.42 4.17786 19.4571 19.7226 
483 1 106.42 1.97943 15.788 17.4891 
482 1 106.42 2.06846 17.7323 15.6934 
484 1 106.42 0.198776 17.7136 17.5595 
86 1 106.42 5.83649 17.5339 19.3374 
485 1 106.42 4.22949 15.7278 15.8113 
486 1 106.42 5.9831 17.779 15.928 
488 1 106.42 3.98622 17.7348 17.3957 
487 1 106.42 6.1999 15.7314 17.5077 
9 1 106.42 8.05402 19.3804 19.5101 
409 1 106.42 8.07581 19.6915 15.8701 
491 1 106.42 9.90361 15.4667 17.5415 
492 1 106.42 8.27506 17.6186 17.3587 
411 1 106.42 10.1511 19.5819 17.8796 
496 1 106.42 11.9193 17.4988 17.7227 
495 1 106.42 13.9067 15.7931 17.5731 
97 1 106.42 15.9839 16.0209 19.3627 
497 1 106.42 15.6129 15.9106 15.7194 
499 1 106.42 18.159 15.7841 17.504 
500 1 106.42 15.815 17.8154 17.742 
