ITEM: TIMESTEP
82400
ITEM: NUMBER OF ATOMS
501
ITEM: BOX BOUNDS pp pp pp
0.0000000000000000e+00 1.9629018200000001e+01
0.0000000000000000e+00 1.9629018200000001e+01
0.0000000000000000e+00 1.9629018200000001e+01
ITEM: ATOMS id type mass x y z 
2 1 106.42 2.01112 2.12843 0.0261372 
23 1 106.42 2.0846 3.81979 2.0331 
4 1 106.42 0.231743 1.8301 1.87482 
8 1 106.42 3.90804 1.8831 1.78001 
125 1 106.42 4.06205 3.7644 3.98573 
106 1 106.42 5.85737 1.69333 3.7661 
129 1 106.42 7.75377 3.75097 3.77868 
27 1 106.42 5.76279 3.80268 2.09329 
109 1 106.42 7.75609 0.0359631 3.63619 
12 1 106.42 7.88563 2.03042 1.76657 
16 1 106.42 11.6933 1.87285 2.14589 
110 1 106.42 9.58673 2.02058 4.02374 
11 1 106.42 9.64507 0.0514575 1.89783 
20 1 106.42 15.4347 2.03525 1.96765 
117 1 106.42 15.4872 0.0433516 3.84099 
35 1 106.42 13.4246 3.6321 2.01499 
14 1 106.42 13.5389 1.64177 0.170071 
118 1 106.42 17.6208 1.93676 3.60743 
19 1 106.42 17.8598 0.11951 2.01282 
37 1 106.42 15.6878 3.78761 0.0767158 
24 1 106.42 0.179429 5.91531 2.00637 
41 1 106.42 0.146389 7.9559 0.0805315 
121 1 106.42 0.14068 3.86715 3.81575 
22 1 106.42 2.02057 5.72056 0.0817291 
28 1 106.42 4.07229 5.86111 1.88905 
145 1 106.42 4.08389 7.78262 4.03288 
29 1 106.42 7.51267 4.0827 0.21843 
26 1 106.42 5.94076 6.14956 0.156967 
32 1 106.42 7.93218 5.92948 2.04494 
31 1 106.42 9.88974 3.89397 1.79309 
36 1 106.42 11.7939 5.95236 2.04631 
133 1 106.42 11.6873 4.09643 3.88242 
30 1 106.42 9.94182 6.02447 0.203846 
40 1 106.42 15.5801 5.75446 2.06292 
134 1 106.42 13.6343 5.67624 3.88549 
34 1 106.42 13.9394 5.8458 0.0754228 
53 1 106.42 11.9761 7.75569 0.190083 
39 1 106.42 17.571 4.02485 2.03401 
38 1 106.42 17.8154 5.83822 19.5763 
59 1 106.42 17.6909 7.60971 2.381 
43 1 106.42 2.14177 7.91626 2.01841 
48 1 106.42 3.88387 9.92906 1.70762 
47 1 106.42 6.15939 7.92405 1.96881 
146 1 106.42 6.05719 9.82027 3.85998 
46 1 106.42 5.90591 9.81671 0.0388958 
67 1 106.42 5.94766 11.5944 1.9379 
52 1 106.42 7.87194 9.76242 2.17779 
51 1 106.42 10.0801 7.86919 2.09353 
150 1 106.42 9.78772 10.0646 3.75075 
50 1 106.42 9.98138 9.61714 0.0587336 
49 1 106.42 7.97082 7.91201 0.336034 
55 1 106.42 13.989 8.10041 1.78104 
56 1 106.42 12.0291 9.79589 1.95418 
75 1 106.42 13.8955 11.5359 2.02479 
44 1 106.42 19.4391 9.78679 2.12623 
60 1 106.42 16.0569 9.93482 2.29585 
58 1 106.42 17.7917 10.0182 0.221422 
77 1 106.42 15.8497 11.8477 0.170206 
57 1 106.42 16.0978 7.93413 0.367932 
63 1 106.42 1.92592 11.7798 1.92039 
68 1 106.42 4.04555 13.6753 1.95859 
161 1 106.42 0.201878 11.8928 3.79433 
162 1 106.42 2.12536 13.8557 3.75801 
72 1 106.42 7.90077 13.8844 1.75929 
166 1 106.42 5.99983 13.7286 3.76857 
66 1 106.42 5.78695 13.7685 0.116753 
169 1 106.42 7.79789 11.9381 3.8192 
71 1 106.42 10.0786 11.9146 1.94881 
91 1 106.42 9.85403 15.6851 1.9672 
70 1 106.42 9.8714 13.9091 19.6052 
69 1 106.42 8.02552 11.7664 0.357481 
76 1 106.42 11.8748 13.8019 1.80477 
174 1 106.42 13.6034 13.7895 3.87599 
173 1 106.42 11.9027 11.9617 3.88941 
197 1 106.42 15.6959 15.5312 3.61547 
74 1 106.42 13.8762 13.6068 0.0612311 
64 1 106.42 19.5251 13.9483 1.93951 
80 1 106.42 15.8915 13.8597 1.77031 
79 1 106.42 17.938 11.7611 2.35903 
61 1 106.42 19.5068 11.7492 0.274225 
178 1 106.42 17.2887 13.8579 3.91915 
83 1 106.42 1.96678 15.7978 1.975 
81 1 106.42 0.232185 15.8804 19.5205 
3 1 106.42 2.1356 0.0519771 1.84989 
88 1 106.42 3.88753 17.6686 2.18571 
84 1 106.42 0.264588 17.9129 1.88285 
87 1 106.42 5.66995 15.6531 1.94891 
7 1 106.42 5.93838 19.3275 1.71002 
92 1 106.42 7.88025 17.4103 1.94852 
5 1 106.42 4.08781 19.6462 0.103726 
90 1 106.42 9.88851 17.4225 19.5789 
13 1 106.42 11.5934 19.4577 0.293823 
15 1 106.42 13.471 19.5159 2.20101 
95 1 106.42 13.9311 15.926 1.57071 
96 1 106.42 11.6791 17.4628 1.93952 
94 1 106.42 13.9328 17.8724 19.5815 
193 1 106.42 12.0298 15.8584 3.81437 
194 1 106.42 13.9953 17.6907 3.83072 
99 1 106.42 17.9294 16.0113 1.74966 
100 1 106.42 16.0786 17.7595 1.64301 
198 1 106.42 17.6736 17.5126 3.71279 
101 1 106.42 0.216268 0.093723 4.09649 
102 1 106.42 1.94153 1.78959 4.0956 
108 1 106.42 3.62736 1.96444 6.14598 
112 1 106.42 7.68689 1.90175 5.79762 
107 1 106.42 5.65957 0.0896442 5.94191 
127 1 106.42 5.78608 3.67803 6.00094 
116 1 106.42 11.6291 1.89038 5.73988 
131 1 106.42 9.95997 3.89445 5.74548 
233 1 106.42 11.5257 3.78539 7.77627 
114 1 106.42 13.6453 2.03683 4.18452 
137 1 106.42 15.6963 3.7777 4.08296 
120 1 106.42 15.4124 2.27252 5.9734 
217 1 106.42 15.4992 0.130052 7.42416 
104 1 106.42 19.2225 2.17031 5.81092 
218 1 106.42 17.5547 1.83719 7.92958 
119 1 106.42 17.467 0.273503 5.67396 
122 1 106.42 1.97284 5.90223 4.17505 
123 1 106.42 2.08102 4.07967 5.75794 
222 1 106.42 2.08481 5.95743 8.00089 
124 1 106.42 0.25543 6.02771 6.09757 
126 1 106.42 5.93599 5.73663 4.13029 
128 1 106.42 4.09034 5.79747 5.76907 
130 1 106.42 9.61942 5.75129 4.18385 
149 1 106.42 7.88507 7.62015 4.00128 
132 1 106.42 7.95257 6.00029 5.99208 
136 1 106.42 11.5777 5.9831 5.80352 
229 1 106.42 8.17069 3.81825 7.65329 
230 1 106.42 9.96908 6.06117 7.75464 
157 1 106.42 15.7801 7.81558 4.00692 
135 1 106.42 13.3577 3.97336 6.06402 
140 1 106.42 15.4785 5.89159 5.76679 
155 1 106.42 13.7154 7.68398 5.91197 
234 1 106.42 13.6733 5.8745 7.72353 
138 1 106.42 17.5825 5.54258 4.21698 
139 1 106.42 17.4512 4.07526 6.14131 
159 1 106.42 17.8109 7.55097 6.03558 
142 1 106.42 2.15542 9.72594 3.90538 
141 1 106.42 0.341748 7.92334 4.21316 
143 1 106.42 2.15851 7.91292 6.16819 
144 1 106.42 0.256102 9.72898 5.81144 
163 1 106.42 2.06107 11.7597 5.91497 
242 1 106.42 2.38986 9.97649 7.79934 
165 1 106.42 3.91884 11.5055 3.88795 
147 1 106.42 6.12862 7.94954 6.04509 
148 1 106.42 4.10719 9.51246 5.85192 
167 1 106.42 6.14453 11.8127 5.94477 
245 1 106.42 4.0931 7.84992 7.73365 
152 1 106.42 7.86305 9.90322 5.78075 
151 1 106.42 9.77661 8.10777 5.66846 
249 1 106.42 8.04333 8.15637 7.74837 
250 1 106.42 9.98948 9.92598 7.7909 
253 1 106.42 11.7585 7.90241 7.80042 
171 1 106.42 10.0171 11.8779 5.83381 
153 1 106.42 11.9568 7.77874 3.96046 
154 1 106.42 13.9044 9.68212 4.01983 
156 1 106.42 11.8473 9.81758 5.8476 
177 1 106.42 15.5697 11.7272 3.96228 
160 1 106.42 15.8935 9.63069 6.26082 
158 1 106.42 17.9604 9.55837 4.32525 
179 1 106.42 17.5902 11.6426 6.05108 
262 1 106.42 2.04442 13.9761 7.82852 
164 1 106.42 0.178165 13.7731 5.69256 
261 1 106.42 0.141871 11.7506 7.77134 
183 1 106.42 2.12327 15.7013 5.81935 
185 1 106.42 4.14839 15.6923 4.0114 
168 1 106.42 4.01881 13.632 5.63865 
187 1 106.42 5.90482 15.6262 6.01845 
265 1 106.42 3.85691 12.1008 7.74257 
172 1 106.42 8.19089 13.6065 5.79882 
170 1 106.42 10.0091 14.0837 4.05744 
176 1 106.42 12.0495 13.8318 5.9884 
175 1 106.42 13.7544 11.7279 5.86604 
195 1 106.42 13.9178 15.6408 5.81785 
180 1 106.42 15.8497 13.711 5.9305 
199 1 106.42 17.7676 15.5586 5.87105 
181 1 106.42 0.0425769 15.9112 3.99799 
182 1 106.42 1.96342 17.6866 3.95312 
103 1 106.42 1.94079 19.5614 6.04804 
105 1 106.42 3.80917 0.0736588 3.93277 
188 1 106.42 3.80835 17.7737 5.87632 
184 1 106.42 0.179011 17.5908 5.84409 
186 1 106.42 6.18669 17.718 3.90697 
192 1 106.42 7.74076 17.4401 5.90568 
286 1 106.42 5.73378 17.57 7.87642 
190 1 106.42 9.84013 17.2523 4.03022 
111 1 106.42 9.45208 19.5802 5.80874 
189 1 106.42 7.93349 15.5872 4.07654 
113 1 106.42 11.3635 19.6338 3.90198 
191 1 106.42 9.82483 15.6661 6.10045 
213 1 106.42 11.4817 19.2286 7.55608 
290 1 106.42 9.52251 17.801 7.78626 
115 1 106.42 13.5263 0.0434472 5.69623 
196 1 106.42 11.8586 17.3916 5.76306 
294 1 106.42 13.6701 17.7475 7.55099 
200 1 106.42 15.5573 17.6346 5.82754 
281 1 106.42 19.5049 15.9149 7.78631 
201 1 106.42 19.5522 19.3919 7.64741 
298 1 106.42 17.6468 17.5961 7.72524 
202 1 106.42 1.74496 1.98969 7.99253 
221 1 106.42 0.0185827 3.87663 7.92424 
223 1 106.42 1.8972 3.95748 9.84863 
203 1 106.42 1.61838 0.168482 9.64406 
208 1 106.42 3.49836 2.07089 10.0589 
206 1 106.42 5.50426 1.85328 8.39703 
207 1 106.42 5.51209 0.00776969 9.83454 
212 1 106.42 7.70046 1.99062 9.59445 
306 1 106.42 5.77172 2.11339 11.7555 
209 1 106.42 7.48836 19.4967 7.80221 
309 1 106.42 7.67667 0.076362 11.6857 
210 1 106.42 9.76511 1.59695 7.89546 
231 1 106.42 9.93765 3.64584 9.84013 
211 1 106.42 9.74037 0.204241 9.76233 
310 1 106.42 9.57614 2.04265 11.7043 
214 1 106.42 13.5653 1.93731 7.88268 
216 1 106.42 11.8866 1.64315 9.65954 
220 1 106.42 15.4992 1.86979 9.78223 
314 1 106.42 13.651 1.87982 11.4722 
204 1 106.42 19.5485 2.01537 9.65347 
318 1 106.42 17.6119 1.8696 11.7723 
321 1 106.42 0.0153589 3.81106 11.6717 
219 1 106.42 17.3974 0.077959 9.63465 
225 1 106.42 3.72061 3.95571 8.10082 
228 1 106.42 3.7948 6.31652 9.88043 
322 1 106.42 1.56057 5.66273 11.8186 
224 1 106.42 0.244944 6.15568 9.65298 
226 1 106.42 5.91618 5.87499 7.80395 
227 1 106.42 5.77861 4.15395 9.70782 
329 1 106.42 7.78056 4.37747 11.7135 
247 1 106.42 5.88385 7.64318 9.72371 
232 1 106.42 8.14494 6.13561 9.4461 
236 1 106.42 11.5113 6.00524 9.91655 
330 1 106.42 9.67681 5.98091 11.7557 
237 1 106.42 15.506 3.9337 8.21567 
235 1 106.42 13.4925 4.04016 9.70458 
240 1 106.42 15.6435 5.90093 9.67282 
255 1 106.42 13.4325 7.76611 9.72971 
357 1 106.42 15.5891 7.63972 11.7026 
257 1 106.42 15.795 7.70014 8.11573 
238 1 106.42 17.6204 5.79749 8.0495 
337 1 106.42 15.6005 3.91993 11.7252 
239 1 106.42 17.5301 4.02612 9.91914 
259 1 106.42 17.6741 7.55682 9.83187 
243 1 106.42 2.01647 8.2907 9.86537 
248 1 106.42 3.76706 10.2633 10.0333 
246 1 106.42 5.73884 9.85934 8.02465 
346 1 106.42 5.90654 9.62297 11.6418 
267 1 106.42 5.90063 11.7154 9.88348 
251 1 106.42 10.0167 8.05225 9.79452 
252 1 106.42 7.95049 9.69682 9.58444 
273 1 106.42 11.729 11.9182 7.79961 
254 1 106.42 13.6947 9.68965 7.90968 
256 1 106.42 11.8943 9.82197 9.8455 
260 1 106.42 15.3855 9.49853 9.99113 
277 1 106.42 15.6268 11.6514 7.82876 
275 1 106.42 13.7826 11.6224 9.78183 
258 1 106.42 17.7017 9.93989 8.16119 
241 1 106.42 19.4884 7.99692 7.77065 
244 1 106.42 19.5681 10.1182 9.77955 
358 1 106.42 17.3164 9.65192 11.861 
279 1 106.42 17.4553 11.8119 9.88018 
341 1 106.42 19.4355 7.96669 11.7766 
361 1 106.42 19.5388 11.9865 11.6112 
377 1 106.42 15.7182 11.6974 11.5073 
263 1 106.42 1.96606 11.9028 9.83698 
264 1 106.42 0.0920921 13.6094 9.53861 
283 1 106.42 1.63337 15.6248 9.83362 
385 1 106.42 3.89793 15.5705 11.7269 
362 1 106.42 1.98638 13.6841 11.7469 
285 1 106.42 3.99626 15.6411 7.98556 
268 1 106.42 3.94956 13.6305 9.66347 
266 1 106.42 6.10811 13.6668 7.91855 
272 1 106.42 7.67839 13.8231 10.0019 
287 1 106.42 5.85734 15.5227 9.93232 
289 1 106.42 7.78418 15.5811 7.9556 
269 1 106.42 7.96598 11.8294 8.06101 
271 1 106.42 10.0081 11.7949 9.9596 
270 1 106.42 9.67399 13.5905 7.90968 
291 1 106.42 9.73773 15.5793 9.67008 
276 1 106.42 11.8277 13.6597 9.9659 
274 1 106.42 13.7901 13.7912 7.93889 
295 1 106.42 13.9151 15.7719 9.87209 
280 1 106.42 15.7176 13.7367 9.5978 
293 1 106.42 11.8267 15.4471 8.21341 
278 1 106.42 17.7804 13.7115 7.84638 
297 1 106.42 15.6873 15.7257 7.971 
299 1 106.42 17.8292 15.5191 9.82959 
397 1 106.42 15.8361 15.7074 11.5044 
378 1 106.42 17.7372 13.7226 11.6742 
205 1 106.42 3.76456 19.5165 7.93296 
282 1 106.42 1.97055 17.7586 8.10076 
288 1 106.42 3.73088 17.5186 9.99257 
386 1 106.42 5.92146 17.6191 11.6253 
292 1 106.42 7.8613 17.698 9.73046 
296 1 106.42 11.6187 17.5509 9.79626 
390 1 106.42 9.66249 17.5838 11.6362 
215 1 106.42 13.5516 19.4358 9.60748 
300 1 106.42 15.5583 17.611 9.69277 
394 1 106.42 13.6309 17.5529 11.6612 
284 1 106.42 19.6628 17.6194 9.85636 
398 1 106.42 17.7277 17.7267 11.5749 
302 1 106.42 1.62819 1.90395 11.9067 
323 1 106.42 1.59675 3.84924 13.6709 
308 1 106.42 3.9528 2.08372 13.3474 
303 1 106.42 1.93184 0.371962 13.9051 
312 1 106.42 7.88621 2.13601 13.6604 
307 1 106.42 6.4056 19.5293 13.791 
406 1 106.42 5.76185 2.08234 15.3772 
405 1 106.42 4.18287 0.0896095 15.4164 
333 1 106.42 11.6597 3.8039 11.809 
410 1 106.42 9.9476 1.92724 15.509 
413 1 106.42 11.6235 0.0750313 15.4792 
316 1 106.42 11.7183 1.96958 13.6752 
335 1 106.42 13.625 3.94403 13.8811 
414 1 106.42 13.5779 1.91557 15.6909 
320 1 106.42 15.398 1.95152 13.5067 
315 1 106.42 13.6136 0.0658081 13.4497 
317 1 106.42 15.787 0.13135 11.9463 
304 1 106.42 19.4779 1.86079 13.8312 
339 1 106.42 17.4426 3.69478 13.6818 
319 1 106.42 17.5388 0.0760227 13.6907 
425 1 106.42 3.95746 4.25076 15.4808 
325 1 106.42 3.71463 4.22289 11.8212 
328 1 106.42 3.91373 6.03941 13.6546 
324 1 106.42 19.4404 6.03482 13.6585 
422 1 106.42 1.81525 5.82998 15.5888 
445 1 106.42 3.67757 7.7682 15.6136 
326 1 106.42 5.71127 6.04907 11.9536 
327 1 106.42 5.72163 4.0276 13.4024 
332 1 106.42 7.6624 6.10592 13.8982 
347 1 106.42 5.68404 7.79237 13.8034 
429 1 106.42 7.98223 4.07697 15.6878 
349 1 106.42 7.84929 7.64939 11.8668 
331 1 106.42 9.6091 4.10426 13.7204 
336 1 106.42 11.6764 5.90309 13.5897 
353 1 106.42 11.8168 7.8254 11.824 
351 1 106.42 9.67711 7.68023 13.7928 
334 1 106.42 13.6662 5.89665 11.9758 
340 1 106.42 15.7682 5.89255 13.8727 
437 1 106.42 15.5464 4.00146 15.6322 
338 1 106.42 17.4401 5.7603 12.0127 
438 1 106.42 17.3627 5.94619 15.5776 
421 1 106.42 19.3505 4.16869 15.51 
345 1 106.42 3.81208 8.07921 11.8957 
342 1 106.42 1.89404 10.1336 11.8569 
343 1 106.42 1.97311 8.00181 13.7095 
442 1 106.42 1.94039 9.66799 15.7234 
465 1 106.42 3.85576 11.6601 15.4013 
348 1 106.42 3.88413 9.63805 13.9413 
352 1 106.42 7.58011 9.68668 13.7337 
350 1 106.42 9.83858 9.79427 11.7792 
450 1 106.42 9.56101 9.68126 15.6074 
371 1 106.42 9.84335 11.6148 13.7605 
449 1 106.42 7.86387 7.9986 15.6781 
473 1 106.42 11.7627 11.7294 15.6294 
354 1 106.42 13.7928 9.54441 11.9962 
355 1 106.42 13.9718 8.01739 13.9941 
356 1 106.42 11.757 9.57019 13.9877 
375 1 106.42 13.8733 11.7169 14.0512 
373 1 106.42 11.9829 11.4295 11.792 
359 1 106.42 17.7588 7.97858 13.6791 
360 1 106.42 15.7764 9.69462 13.9362 
344 1 106.42 19.4542 9.896 13.6257 
379 1 106.42 17.6215 11.7572 13.862 
458 1 106.42 17.5639 9.972 15.7221 
441 1 106.42 19.6193 8.01969 15.6995 
461 1 106.42 19.515 11.6929 15.5884 
365 1 106.42 3.92623 11.8833 12.0083 
363 1 106.42 1.75302 11.8765 13.8712 
368 1 106.42 3.91272 13.9674 13.7659 
462 1 106.42 2.04371 13.7335 15.6624 
481 1 106.42 -0.0389381 15.5273 15.6188 
381 1 106.42 0.110607 15.5598 11.8379 
389 1 106.42 7.73372 15.8857 11.9284 
366 1 106.42 5.9518 13.6497 11.9415 
367 1 106.42 6.1143 11.8966 13.7912 
387 1 106.42 5.85974 15.4368 13.9353 
372 1 106.42 7.83418 13.842 13.9028 
370 1 106.42 10.0595 13.5075 11.8675 
369 1 106.42 7.88072 11.7142 11.7319 
374 1 106.42 13.8403 13.3662 11.8811 
376 1 106.42 11.7562 13.7007 13.6302 
395 1 106.42 14.0358 15.4828 13.7036 
474 1 106.42 14.2498 13.7433 15.5983 
364 1 106.42 19.4517 13.5412 13.808 
380 1 106.42 15.7747 13.2704 13.56 
399 1 106.42 17.692 15.4444 13.7987 
382 1 106.42 1.89535 17.6999 12.0303 
383 1 106.42 1.99991 16.0296 14.1494 
384 1 106.42 0.0176393 17.8959 13.6729 
482 1 106.42 2.02595 17.8595 15.5492 
305 1 106.42 3.99345 19.4603 11.8744 
388 1 106.42 3.92541 17.7048 13.764 
392 1 106.42 7.66998 17.3712 13.9807 
311 1 106.42 9.49963 19.305 13.6209 
391 1 106.42 9.84467 15.7983 13.7572 
490 1 106.42 9.9844 17.5764 15.6902 
313 1 106.42 11.6404 19.6528 11.6931 
396 1 106.42 11.6527 17.9302 13.6355 
393 1 106.42 11.829 15.9408 11.8166 
417 1 106.42 15.5831 19.4518 15.5596 
493 1 106.42 12.0192 15.8309 15.396 
301 1 106.42 19.6105 0.0155129 11.7967 
400 1 106.42 15.9177 17.5184 13.583 
498 1 106.42 17.6328 17.5019 15.6281 
402 1 106.42 2.09866 2.41857 15.7717 
401 1 106.42 19.5953 0.0100628 15.7199 
403 1 106.42 2.38818 0.287881 17.4332 
404 1 106.42 0.0425108 2.01481 17.5391 
6 1 106.42 6.20208 1.91209 19.3765 
408 1 106.42 4.04309 2.00914 17.8462 
427 1 106.42 5.88289 3.82681 17.4524 
10 1 106.42 9.721 2.09826 19.4341 
33 1 106.42 11.6684 3.68139 19.5742 
412 1 106.42 7.88548 1.95858 17.5016 
416 1 106.42 11.7297 2.13681 17.502 
431 1 106.42 9.63095 3.84821 17.7101 
409 1 106.42 8.25703 0.18579 15.8377 
420 1 106.42 15.4596 1.78109 17.6402 
435 1 106.42 13.4077 3.76178 17.7631 
17 1 106.42 15.6849 0.244712 19.5897 
1 1 106.42 19.5747 0.101492 19.4739 
418 1 106.42 17.4186 1.72338 15.6673 
18 1 106.42 17.6847 2.1287 19.6211 
439 1 106.42 17.3945 3.69562 17.6597 
45 1 106.42 3.90989 7.71534 19.3779 
423 1 106.42 1.88459 4.17942 17.5414 
443 1 106.42 1.90381 7.81239 17.7273 
25 1 106.42 4.0719 3.82239 19.5454 
426 1 106.42 5.79854 6.08767 15.815 
428 1 106.42 3.87455 5.7297 17.6401 
430 1 106.42 9.58495 5.9723 15.8335 
432 1 106.42 7.84583 5.87448 17.8051 
436 1 106.42 11.5985 5.9295 17.899 
451 1 106.42 9.69504 7.64701 17.7919 
433 1 106.42 11.5435 4.3564 15.8568 
453 1 106.42 11.9599 7.59869 15.9066 
434 1 106.42 13.8211 5.92524 15.8158 
455 1 106.42 13.905 7.71416 17.8897 
21 1 106.42 19.6141 4.01678 19.3877 
424 1 106.42 19.4772 5.95295 17.5678 
440 1 106.42 15.9509 5.75732 17.8587 
457 1 106.42 15.8787 7.77748 16.0352 
42 1 106.42 1.94647 9.81283 19.5012 
444 1 106.42 0.0654302 10.0498 17.7167 
463 1 106.42 2.22973 11.6731 17.4605 
448 1 106.42 4.16308 9.67773 17.4032 
446 1 106.42 5.97087 9.65402 15.8068 
447 1 106.42 5.9823 7.91843 17.6392 
501 2 1.01 9.78745 9.1784 17.6702 
452 1 106.42 7.89644 9.89759 17.8313 
456 1 106.42 11.6482 9.83325 17.6531 
73 1 106.42 11.6599 11.6425 19.4649 
54 1 106.42 13.7706 9.9382 19.1719 
454 1 106.42 13.9855 9.71573 16.0727 
475 1 106.42 13.6627 11.8916 17.6535 
477 1 106.42 15.6007 11.6813 15.7346 
459 1 106.42 18.0717 7.98013 17.6962 
460 1 106.42 15.6995 10.0595 17.8138 
62 1 106.42 1.76133 13.7138 19.5319 
85 1 106.42 3.80909 15.6907 19.4438 
464 1 106.42 0.255557 13.8448 17.55 
65 1 106.42 3.95647 12.0551 19.4538 
467 1 106.42 6.05557 12.0556 17.7022 
468 1 106.42 4.17932 13.6869 17.6657 
466 1 106.42 5.74088 13.5403 15.8046 
469 1 106.42 7.76741 11.8212 15.6958 
487 1 106.42 6.21208 15.4902 17.8387 
489 1 106.42 7.87285 15.5666 15.8355 
470 1 106.42 10.0338 13.749 15.7444 
471 1 106.42 9.75738 11.8357 17.6283 
472 1 106.42 8.07233 13.6795 17.637 
491 1 106.42 9.97232 15.522 17.5793 
476 1 106.42 12.1209 13.9068 17.5637 
495 1 106.42 13.8503 15.5856 17.6097 
478 1 106.42 17.4725 13.8448 15.8326 
479 1 106.42 17.8708 12.0543 17.7686 
78 1 106.42 17.7915 14.1151 19.529 
480 1 106.42 15.6707 13.7842 17.9441 
82 1 106.42 2.09991 18.1783 19.4403 
483 1 106.42 1.98006 15.7206 17.3853 
484 1 106.42 0.294493 17.793 17.5364 
488 1 106.42 3.72865 17.8245 17.4869 
407 1 106.42 5.99773 19.4371 17.6878 
89 1 106.42 7.75837 15.8771 0.0206288 
86 1 106.42 5.65419 17.5437 19.3115 
485 1 106.42 3.93643 15.6647 15.7981 
486 1 106.42 5.94635 17.4598 15.8395 
9 1 106.42 7.87395 19.4597 0.0556324 
492 1 106.42 8.17885 17.5051 17.4977 
411 1 106.42 9.99171 19.5588 17.8404 
93 1 106.42 11.9604 15.7405 19.5472 
494 1 106.42 13.6161 17.844 15.7646 
415 1 106.42 13.5083 0.0416575 17.6208 
496 1 106.42 11.8371 17.4368 17.6864 
497 1 106.42 15.5584 15.9794 15.8249 
98 1 106.42 18.0693 17.5623 19.3242 
419 1 106.42 17.7184 19.5214 17.5055 
97 1 106.42 15.9263 15.9096 19.5714 
499 1 106.42 17.8353 15.744 17.5066 
500 1 106.42 15.5675 17.8385 17.5864 
