ITEM: TIMESTEP
8600
ITEM: NUMBER OF ATOMS
501
ITEM: BOX BOUNDS pp pp pp
0.0000000000000000e+00 1.9629018200000001e+01
0.0000000000000000e+00 1.9629018200000001e+01
0.0000000000000000e+00 1.9629018200000001e+01
ITEM: ATOMS id type mass x y z 
23 1 106.42 2.01589 3.7404 1.98408 
2 1 106.42 1.83107 2.11436 -0.00103988 
8 1 106.42 3.85571 2.03843 1.98659 
7 1 106.42 5.96529 -0.0336426 2.05281 
12 1 106.42 7.90074 1.82704 2.05588 
29 1 106.42 7.63836 3.85576 0.0761473 
27 1 106.42 5.73532 3.8835 1.86973 
106 1 106.42 5.99312 1.9183 3.76639 
129 1 106.42 7.71808 3.88371 3.43091 
11 1 106.42 10.2007 0.000791166 2.03362 
16 1 106.42 11.8384 2.00351 1.65194 
9 1 106.42 8.06437 0.0381392 -0.044802 
133 1 106.42 11.4718 3.83574 3.78706 
10 1 106.42 9.83051 1.96148 0.240954 
35 1 106.42 13.5747 3.96995 2.24757 
15 1 106.42 13.7322 0.0258982 2.04284 
14 1 106.42 13.9528 1.66923 0.0751566 
4 1 106.42 19.5303 2.05222 1.84257 
20 1 106.42 15.6313 1.91939 1.96567 
39 1 106.42 17.6895 3.80744 2.2957 
37 1 106.42 15.7794 3.89005 -0.0534648 
19 1 106.42 17.7172 0.221859 2.35779 
101 1 106.42 19.6659 0.267441 3.92654 
1 1 106.42 19.5594 0.0307707 0.229534 
18 1 106.42 17.3243 1.84662 -0.0419841 
122 1 106.42 1.95551 5.78754 3.86961 
28 1 106.42 3.94155 5.99517 1.87147 
24 1 106.42 0.200685 5.64716 1.9156 
126 1 106.42 5.90997 6.17365 3.76374 
32 1 106.42 7.74398 6.02505 1.66816 
31 1 106.42 9.80466 3.91615 1.80892 
130 1 106.42 9.76597 5.89369 3.72103 
153 1 106.42 11.5419 7.72102 4.05524 
33 1 106.42 11.819 4.08211 -0.0195665 
36 1 106.42 11.8293 5.9789 1.60472 
40 1 106.42 15.2769 5.82413 2.0079 
137 1 106.42 15.7145 3.93782 3.86781 
59 1 106.42 17.5788 7.61752 1.89639 
38 1 106.42 17.6324 5.46959 0.50253 
57 1 106.42 15.9601 7.53292 0.0279937 
43 1 106.42 1.77158 8.03603 1.63551 
141 1 106.42 0.103456 7.9421 3.7499 
142 1 106.42 1.87203 9.84755 3.61717 
145 1 106.42 3.75107 7.82263 3.65125 
45 1 106.42 3.78887 8.07322 0.0157149 
47 1 106.42 5.87987 7.91941 1.80236 
48 1 106.42 3.91019 9.83981 1.75439 
46 1 106.42 5.72166 10.0832 0.0818788 
52 1 106.42 7.79134 9.9966 1.92008 
67 1 106.42 5.95094 11.7769 2.05007 
51 1 106.42 9.75381 8.02308 1.85538 
56 1 106.42 11.5156 10.1154 2.09342 
53 1 106.42 11.6699 8.17869 -0.00303644 
55 1 106.42 13.3995 7.95734 1.797 
60 1 106.42 15.4612 9.49105 2.04494 
44 1 106.42 19.3594 9.70665 1.73278 
79 1 106.42 17.4182 11.6671 1.7785 
58 1 106.42 17.4101 9.48824 0.0874098 
177 1 106.42 15.6757 11.3626 3.83879 
158 1 106.42 17.7464 9.7972 3.64779 
61 1 106.42 19.3431 11.732 0.0507483 
63 1 106.42 1.95603 11.9293 1.86418 
62 1 106.42 1.67345 13.9566 -0.101181 
65 1 106.42 3.8988 11.8679 -0.0471878 
165 1 106.42 3.88816 11.892 3.59054 
162 1 106.42 1.88643 13.8456 3.54928 
85 1 106.42 3.87225 15.5724 0.230846 
68 1 106.42 3.97429 13.9004 1.98346 
72 1 106.42 7.55204 14.0409 1.8333 
185 1 106.42 3.85775 15.8273 3.74935 
66 1 106.42 5.8287 13.8615 0.0760514 
71 1 106.42 9.62715 12.0805 1.98174 
70 1 106.42 9.91418 13.869 0.0226605 
76 1 106.42 11.7557 13.8123 2.01198 
170 1 106.42 9.74879 13.9022 3.89875 
75 1 106.42 13.7651 11.8901 2.00408 
74 1 106.42 13.8976 13.4638 0.13215 
80 1 106.42 15.4448 13.8627 2.2243 
97 1 106.42 15.6097 15.5787 0.204233 
93 1 106.42 12.0521 15.7271 0.0754509 
161 1 106.42 19.6397 11.6055 3.79446 
64 1 106.42 19.5631 13.8573 1.80222 
78 1 106.42 17.4599 13.5696 0.164939 
81 1 106.42 19.4781 15.4918 0.0636507 
181 1 106.42 19.5328 15.7818 3.86913 
3 1 106.42 1.978 19.6433 1.93933 
83 1 106.42 1.7812 16.072 1.95239 
182 1 106.42 1.82364 17.8757 3.85232 
88 1 106.42 3.85394 17.8837 1.80112 
87 1 106.42 6.0206 16.0862 1.91179 
186 1 106.42 5.83713 17.7298 3.93867 
189 1 106.42 7.97211 15.8917 3.83667 
86 1 106.42 5.92903 17.8865 0.0759522 
92 1 106.42 8.18075 17.9318 1.9535 
91 1 106.42 9.8916 15.7736 1.94278 
190 1 106.42 9.96217 17.5572 3.74867 
95 1 106.42 13.8256 15.735 1.91955 
96 1 106.42 11.9674 17.6894 1.9934 
94 1 106.42 14.0981 17.8323 0.010315 
117 1 106.42 15.4808 19.7062 3.93341 
99 1 106.42 17.6887 15.9517 1.97668 
17 1 106.42 15.7526 19.61 0.103068 
84 1 106.42 19.6507 17.6923 1.72545 
100 1 106.42 15.7563 17.6487 2.08485 
98 1 106.42 17.7695 17.8595 0.154139 
121 1 106.42 -0.0327119 3.77244 4.20161 
102 1 106.42 2.09253 1.81591 4.0379 
104 1 106.42 -0.06465 1.92076 6.14775 
123 1 106.42 1.89101 3.77658 5.8468 
103 1 106.42 2.06727 0.0194599 5.80517 
202 1 106.42 2.06361 1.98216 7.91778 
125 1 106.42 3.94905 3.96853 4.05123 
108 1 106.42 4.07319 2.00539 5.86755 
112 1 106.42 7.62645 1.73038 5.92038 
110 1 106.42 9.94182 1.8998 4.03126 
111 1 106.42 9.95978 -0.0751532 6.02616 
116 1 106.42 11.8236 2.2602 6.09281 
213 1 106.42 11.7642 0.110539 7.89618 
210 1 106.42 9.7211 2.14242 7.55015 
114 1 106.42 13.3898 1.99698 4.11115 
120 1 106.42 15.6237 1.88063 5.88285 
135 1 106.42 13.7387 3.91308 6.08235 
118 1 106.42 17.8156 2.08198 4.1294 
218 1 106.42 17.6366 1.78926 7.85792 
139 1 106.42 17.5048 3.76561 6.02859 
124 1 106.42 0.115089 5.83273 6.09575 
222 1 106.42 2.27659 5.88855 7.8092 
143 1 106.42 2.00157 7.7177 5.79076 
127 1 106.42 6.22686 4.13532 5.59751 
128 1 106.42 4.16871 5.84005 5.56397 
132 1 106.42 7.87191 5.97848 5.61565 
226 1 106.42 6.01909 5.97318 7.66169 
225 1 106.42 4.10008 3.8757 7.60684 
131 1 106.42 9.47729 3.99875 5.87752 
151 1 106.42 9.73348 7.51842 6.03796 
157 1 106.42 15.5194 7.76577 3.98692 
136 1 106.42 11.8561 5.66454 5.74031 
134 1 106.42 13.5771 6.04616 3.97761 
234 1 106.42 13.5721 5.93256 7.66573 
140 1 106.42 15.8841 5.76358 5.87198 
138 1 106.42 18.1168 5.61547 3.94687 
159 1 106.42 17.8926 7.8031 5.61401 
238 1 106.42 17.7415 5.95612 7.45887 
241 1 106.42 0.0762061 7.86069 7.65944 
144 1 106.42 0.0814768 9.71847 5.90703 
146 1 106.42 5.87038 9.89726 3.99706 
148 1 106.42 4.00571 9.93467 6.00396 
147 1 106.42 5.67513 7.8734 5.98777 
246 1 106.42 5.96453 10.0665 7.59741 
249 1 106.42 7.81608 8.07083 7.60283 
149 1 106.42 7.83148 7.99542 3.96705 
150 1 106.42 9.78591 9.60133 4.03833 
152 1 106.42 7.85499 10.0746 5.70183 
156 1 106.42 11.5369 9.95013 5.93023 
250 1 106.42 9.96136 9.94635 7.73332 
253 1 106.42 11.7704 7.95621 7.73429 
154 1 106.42 13.2865 9.90782 3.94743 
155 1 106.42 13.4802 8.11275 5.69445 
257 1 106.42 15.5099 7.99836 7.789 
175 1 106.42 13.8183 11.6646 5.84275 
261 1 106.42 19.5574 11.7491 7.65866 
160 1 106.42 15.6878 9.60269 5.81122 
179 1 106.42 17.9099 11.5896 5.59565 
258 1 106.42 17.7555 9.68354 7.67299 
163 1 106.42 2.0896 11.7743 5.61523 
168 1 106.42 3.68237 13.7642 5.77494 
164 1 106.42 0.312185 13.5206 5.6741 
166 1 106.42 5.84182 14.0201 3.9126 
167 1 106.42 5.87485 12.0267 5.86315 
265 1 106.42 3.84234 11.9135 7.78813 
266 1 106.42 5.54737 13.9337 7.65816 
173 1 106.42 11.8188 11.961 4.00122 
172 1 106.42 8.15013 13.8767 5.94127 
169 1 106.42 7.85416 12.1415 4.13664 
171 1 106.42 9.84215 11.9623 5.87798 
193 1 106.42 11.6116 15.6047 4.14416 
176 1 106.42 11.9109 13.8312 6.09812 
174 1 106.42 13.8146 14.0033 4.04858 
195 1 106.42 13.6963 15.7018 6.23902 
501 2 1.01 18.1402 13.4114 6.47286 
180 1 106.42 15.9301 13.5774 5.70594 
178 1 106.42 17.635 13.8206 3.88369 
199 1 106.42 17.6058 15.696 6.03302 
278 1 106.42 17.6889 13.7536 7.70824 
183 1 106.42 1.86519 15.7324 5.57005 
188 1 106.42 3.90865 17.7132 5.82672 
184 1 106.42 0.0465056 17.5959 6.06085 
105 1 106.42 4.01145 19.5313 4.02889 
107 1 106.42 5.90632 19.6276 5.92296 
187 1 106.42 6.12811 15.898 6.09127 
109 1 106.42 8.18563 19.6028 4.04938 
191 1 106.42 9.69356 15.9535 5.92515 
192 1 106.42 7.92625 17.8151 6.19649 
113 1 106.42 11.8979 19.603 4.13285 
115 1 106.42 13.8709 19.6112 6.0571 
197 1 106.42 15.704 15.8088 4.04643 
194 1 106.42 13.7136 17.6463 3.93262 
196 1 106.42 11.7898 17.6803 5.93201 
119 1 106.42 17.4354 19.6887 5.90832 
198 1 106.42 17.6005 17.7495 4.03696 
200 1 106.42 15.6403 17.606 6.04307 
201 1 106.42 19.5747 19.5925 7.78968 
302 1 106.42 1.89287 2.13383 11.7905 
208 1 106.42 3.89772 2.06393 9.75098 
204 1 106.42 0.0216646 1.60968 9.68216 
205 1 106.42 3.87289 -0.0318998 7.86699 
206 1 106.42 5.80452 2.04024 7.92888 
212 1 106.42 7.72447 1.9877 9.82483 
306 1 106.42 6.03936 1.84089 11.6915 
325 1 106.42 3.93932 3.69861 11.5972 
231 1 106.42 9.83221 3.99374 9.83785 
211 1 106.42 10.0654 0.3422 9.84175 
214 1 106.42 13.9192 1.85313 7.90136 
216 1 106.42 11.8698 2.17987 9.77362 
314 1 106.42 13.9017 2.30619 11.6073 
215 1 106.42 13.6607 0.0413303 10.0751 
217 1 106.42 15.7879 -0.0420768 8.07488 
221 1 106.42 19.5194 3.67306 8.20623 
220 1 106.42 15.9086 2.21171 9.6909 
318 1 106.42 17.6847 1.91332 11.8172 
239 1 106.42 17.8776 3.7774 9.95874 
219 1 106.42 17.5738 0.103523 10.0154 
223 1 106.42 2.12713 4.13434 9.69816 
243 1 106.42 2.04619 7.6706 9.76611 
321 1 106.42 0.0576153 3.95528 11.6773 
227 1 106.42 5.65722 4.06035 9.66264 
228 1 106.42 4.01734 5.90794 9.58779 
329 1 106.42 7.88554 4.07907 11.643 
232 1 106.42 7.6141 5.86368 9.81142 
345 1 106.42 3.97175 7.61949 11.4315 
326 1 106.42 5.68331 5.86713 11.585 
233 1 106.42 11.5049 4.03073 7.86812 
229 1 106.42 7.8352 3.9747 8.03911 
230 1 106.42 9.45488 6.03426 8.02437 
236 1 106.42 11.664 6.16189 10.009 
235 1 106.42 13.8045 4.18334 9.59003 
334 1 106.42 13.679 5.90292 11.7828 
255 1 106.42 13.5965 7.84414 9.6736 
333 1 106.42 11.7777 4.04672 11.7905 
237 1 106.42 15.7145 4.01132 7.91097 
337 1 106.42 15.7458 3.99765 11.7648 
224 1 106.42 19.4699 5.71023 9.76721 
240 1 106.42 15.5975 6.23567 9.61334 
259 1 106.42 17.9192 7.73712 9.50609 
242 1 106.42 1.92192 9.89655 7.872 
342 1 106.42 2.14324 9.75678 11.668 
244 1 106.42 0.0959552 9.47857 9.93465 
263 1 106.42 1.92141 11.7764 9.70302 
248 1 106.42 3.77862 9.83147 9.66488 
245 1 106.42 4.03561 8.0835 7.84302 
247 1 106.42 5.99008 7.95559 10.0333 
252 1 106.42 7.63218 9.77593 9.78111 
267 1 106.42 5.93659 11.7615 9.81226 
251 1 106.42 9.72019 7.98609 9.7923 
256 1 106.42 11.6875 9.76565 9.84953 
350 1 106.42 9.71012 9.74599 11.6375 
254 1 106.42 13.7038 9.76998 7.85895 
260 1 106.42 15.6697 9.74364 9.79233 
275 1 106.42 13.7748 11.5121 9.87554 
273 1 106.42 11.8916 11.6624 8.01975 
354 1 106.42 13.4002 9.54128 11.6458 
377 1 106.42 15.6025 11.5318 11.6999 
277 1 106.42 15.8352 11.4801 7.84636 
279 1 106.42 17.6905 11.4778 9.76925 
357 1 106.42 15.8587 8.00603 11.5335 
262 1 106.42 2.0877 13.8739 7.88344 
283 1 106.42 2.05882 15.3995 10.0616 
281 1 106.42 0.186369 15.6642 7.83045 
381 1 106.42 0.135039 15.678 11.6378 
268 1 106.42 4.3721 13.7538 9.96214 
272 1 106.42 7.82621 13.9127 9.86331 
369 1 106.42 7.82275 11.8693 11.8271 
269 1 106.42 8.06962 11.9428 7.96159 
270 1 106.42 10.1559 13.5494 7.9267 
271 1 106.42 9.70108 11.8024 10.0949 
291 1 106.42 10.2524 15.5078 10.0454 
297 1 106.42 15.4692 15.6051 8.00327 
276 1 106.42 11.8087 13.4979 10.0376 
274 1 106.42 13.9385 13.322 7.90326 
295 1 106.42 13.6835 15.5972 9.95193 
280 1 106.42 15.5838 13.8364 9.9139 
397 1 106.42 15.5333 15.7164 11.7611 
264 1 106.42 19.6407 13.6245 9.80111 
299 1 106.42 17.6643 15.4689 9.9107 
285 1 106.42 3.42395 15.9711 7.93509 
282 1 106.42 1.7016 17.7161 8.00966 
203 1 106.42 1.88142 19.5505 9.88229 
286 1 106.42 5.49972 17.6612 7.90944 
209 1 106.42 7.57967 19.5509 7.96702 
207 1 106.42 6.18437 19.3879 10.1425 
287 1 106.42 5.81219 15.9385 9.55237 
288 1 106.42 3.93935 17.6613 10.2949 
293 1 106.42 11.6654 15.6921 8.03751 
289 1 106.42 8.20543 15.8829 8.16442 
290 1 106.42 9.86565 17.9729 7.94704 
292 1 106.42 8.1067 17.6446 9.73842 
296 1 106.42 11.5338 17.7027 9.74274 
390 1 106.42 9.99331 17.8981 11.6651 
294 1 106.42 13.6528 17.6913 8.03158 
394 1 106.42 13.6608 17.8698 11.8285 
284 1 106.42 19.3329 17.5554 9.62301 
298 1 106.42 17.5145 17.5591 7.89219 
300 1 106.42 15.6925 17.7139 9.98394 
398 1 106.42 17.8111 17.5487 11.5705 
301 1 106.42 -0.0723101 0.0652555 12.0362 
305 1 106.42 3.87327 -0.0599401 11.8215 
323 1 106.42 2.22522 3.82119 13.8409 
303 1 106.42 2.06054 0.0913006 13.8018 
304 1 106.42 0.0170885 2.09904 13.8585 
405 1 106.42 3.89891 -0.0580682 15.5599 
308 1 106.42 4.05629 2.00112 13.6953 
312 1 106.42 7.53468 2.03213 13.9784 
310 1 106.42 9.59736 2.09239 12.0746 
331 1 106.42 9.81995 3.8969 13.6827 
311 1 106.42 10.0644 0.0109047 13.6723 
316 1 106.42 11.6995 2.11565 13.6653 
410 1 106.42 9.78643 2.19024 15.531 
313 1 106.42 11.8733 0.328776 11.7322 
315 1 106.42 13.4055 -0.0274828 13.7837 
317 1 106.42 15.4254 -0.00715886 11.7097 
320 1 106.42 15.5787 1.89674 13.5534 
335 1 106.42 13.6113 3.98641 13.6804 
414 1 106.42 13.9969 2.0385 15.6101 
437 1 106.42 15.827 3.91761 15.6535 
319 1 106.42 17.706 -0.0125878 13.6425 
339 1 106.42 17.5672 3.68394 13.6184 
418 1 106.42 17.5425 1.88064 15.4723 
322 1 106.42 1.9572 5.7876 11.93 
324 1 106.42 0.0277591 5.53158 13.8554 
343 1 106.42 1.88381 7.73117 13.7757 
328 1 106.42 3.84244 5.80686 13.7694 
349 1 106.42 7.71686 7.80137 12.0787 
327 1 106.42 5.95455 4.0098 13.6996 
332 1 106.42 7.55719 5.93385 13.7246 
347 1 106.42 5.69273 7.64851 13.9923 
330 1 106.42 9.61211 5.79648 11.9406 
336 1 106.42 11.4461 5.96841 13.7909 
430 1 106.42 9.48894 5.89814 15.3919 
340 1 106.42 15.5756 5.84448 13.8322 
434 1 106.42 13.6801 5.98684 15.4814 
338 1 106.42 17.5597 5.87727 11.972 
341 1 106.42 19.5315 7.65352 11.9011 
359 1 106.42 17.7382 7.65802 13.6734 
457 1 106.42 15.6774 7.73387 15.5696 
438 1 106.42 17.7663 5.78698 15.5221 
441 1 106.42 0.049244 7.91803 15.5903 
344 1 106.42 0.191291 9.70249 13.5349 
363 1 106.42 1.88654 11.4562 13.8267 
442 1 106.42 2.03705 9.84713 15.6426 
346 1 106.42 5.9374 9.69405 11.9549 
365 1 106.42 4.04079 11.7794 11.8424 
348 1 106.42 4.16838 9.69199 13.8737 
352 1 106.42 7.58081 9.92509 13.7938 
367 1 106.42 5.83031 11.6361 13.6698 
353 1 106.42 11.5221 7.84723 11.9148 
351 1 106.42 9.59113 8.03007 13.8385 
356 1 106.42 11.7153 9.87887 13.9417 
373 1 106.42 11.7326 11.7044 11.9461 
355 1 106.42 13.6909 7.84134 13.5639 
454 1 106.42 13.5402 9.60342 15.7238 
360 1 106.42 15.7331 9.62465 13.7292 
375 1 106.42 13.6139 11.4009 13.8233 
358 1 106.42 17.8814 9.90668 12.0277 
461 1 106.42 19.4723 11.6158 15.5932 
379 1 106.42 17.436 11.5076 13.8547 
458 1 106.42 17.618 9.6631 15.7197 
362 1 106.42 1.97476 13.34 11.8588 
383 1 106.42 1.98154 15.4599 13.5341 
462 1 106.42 2.14016 13.6005 15.4683 
364 1 106.42 0.0792804 13.8285 13.8097 
485 1 106.42 3.79322 15.6923 15.6196 
465 1 106.42 4.0316 11.7844 15.6707 
366 1 106.42 6.07047 13.8558 11.9023 
368 1 106.42 4.1913 13.5996 13.6951 
385 1 106.42 4.2362 15.595 11.9443 
370 1 106.42 9.92897 13.7156 11.9632 
371 1 106.42 9.81955 11.8406 13.7116 
372 1 106.42 8.05955 13.7892 13.886 
470 1 106.42 9.91282 13.7461 15.5723 
376 1 106.42 12.0161 13.955 13.8377 
374 1 106.42 13.7797 13.5062 11.9325 
395 1 106.42 13.9557 15.6926 13.8202 
380 1 106.42 15.5849 13.7117 13.9292 
361 1 106.42 19.3121 11.9234 11.8208 
378 1 106.42 17.6721 13.7483 11.8934 
399 1 106.42 17.5968 15.6107 13.7369 
382 1 106.42 1.84244 17.5564 11.9272 
384 1 106.42 0.0459231 17.5848 13.864 
388 1 106.42 3.88888 17.4422 13.7641 
481 1 106.42 0.151095 15.5778 15.6544 
387 1 106.42 6.20339 16.0284 13.9239 
386 1 106.42 6.22553 17.582 11.7477 
307 1 106.42 5.84478 19.4836 13.4734 
486 1 106.42 6.08222 17.8879 15.6038 
389 1 106.42 8.19374 15.8975 12.0497 
391 1 106.42 9.99572 15.7903 13.6375 
309 1 106.42 8.04629 19.6858 11.8545 
392 1 106.42 8.32315 17.7934 13.8318 
409 1 106.42 8.04631 19.5925 15.6858 
396 1 106.42 11.7237 17.4995 13.8499 
393 1 106.42 12.0442 15.8016 11.8518 
494 1 106.42 13.9669 17.6111 15.5684 
400 1 106.42 15.8991 17.6146 13.7168 
498 1 106.42 17.6774 17.5208 15.7586 
401 1 106.42 19.4726 19.5152 15.5715 
417 1 106.42 15.9328 19.4243 15.5108 
402 1 106.42 2.0473 1.94876 15.8095 
423 1 106.42 2.13329 3.87118 17.6647 
408 1 106.42 3.77437 1.8553 17.5973 
404 1 106.42 0.0652462 1.72103 17.6406 
5 1 106.42 3.71311 0.233797 19.653 
6 1 106.42 6.06422 1.72986 19.5721 
406 1 106.42 5.8386 1.6715 15.8212 
25 1 106.42 4.03914 3.72493 19.6454 
425 1 106.42 4.09534 3.73921 15.7805 
412 1 106.42 7.90917 1.85523 17.5916 
427 1 106.42 5.68261 3.73627 17.7199 
416 1 106.42 11.7696 2.0684 17.6785 
411 1 106.42 9.9176 0.215726 17.753 
431 1 106.42 9.61469 3.92086 17.8097 
413 1 106.42 11.9817 0.188887 15.7376 
415 1 106.42 13.9935 0.0727783 17.5606 
421 1 106.42 19.5604 3.75945 15.8673 
420 1 106.42 15.8416 1.88025 17.5152 
21 1 106.42 19.5853 3.80914 19.5223 
422 1 106.42 1.96047 5.89715 15.7702 
22 1 106.42 2.17643 5.61344 19.5913 
41 1 106.42 -0.00780008 7.56348 19.5269 
26 1 106.42 5.71832 5.89242 19.5157 
429 1 106.42 7.88998 4.1533 15.7771 
449 1 106.42 7.79327 7.84792 15.9061 
426 1 106.42 5.89093 5.82509 15.7881 
428 1 106.42 3.89963 5.89921 17.6104 
432 1 106.42 7.70183 5.71594 17.7552 
445 1 106.42 3.95376 7.86672 15.8737 
30 1 106.42 10.0229 5.97535 19.4069 
453 1 106.42 11.5831 7.77856 15.8082 
451 1 106.42 9.78831 7.73072 17.5428 
34 1 106.42 13.889 5.75068 19.4486 
433 1 106.42 11.9584 3.90103 15.8106 
435 1 106.42 13.9112 3.99836 17.6185 
436 1 106.42 11.8057 5.60871 17.5301 
455 1 106.42 13.7262 7.69043 17.7563 
439 1 106.42 17.5673 3.9823 17.6533 
424 1 106.42 19.5698 5.81087 17.5265 
440 1 106.42 15.826 5.93832 17.3366 
459 1 106.42 17.7066 7.75526 17.4001 
42 1 106.42 1.76565 10.0987 19.4657 
443 1 106.42 1.86453 7.77616 17.7299 
448 1 106.42 3.95851 9.93747 17.7611 
446 1 106.42 5.80188 10.0196 15.9227 
49 1 106.42 7.80029 7.93139 19.5436 
447 1 106.42 5.86862 7.99262 17.6291 
452 1 106.42 7.68093 9.98764 17.5942 
50 1 106.42 9.60895 9.95072 19.4538 
450 1 106.42 9.51376 9.82633 15.7977 
54 1 106.42 13.5028 9.89759 19.7428 
477 1 106.42 15.5798 11.5592 15.7089 
456 1 106.42 11.8182 9.89038 17.641 
460 1 106.42 15.6014 9.61642 17.6512 
475 1 106.42 13.7322 11.6266 17.6387 
77 1 106.42 15.6437 11.6035 19.3195 
444 1 106.42 19.6553 9.70204 17.7157 
479 1 106.42 17.6766 11.3415 17.7426 
463 1 106.42 1.85651 11.9259 17.6718 
468 1 106.42 3.97403 13.8615 17.7027 
483 1 106.42 1.93545 15.6789 17.5562 
467 1 106.42 5.95575 12.0688 17.8398 
466 1 106.42 5.76748 13.7003 15.8554 
472 1 106.42 7.75398 13.7338 17.803 
69 1 106.42 7.85093 11.9227 19.7124 
73 1 106.42 11.6914 11.747 19.7184 
473 1 106.42 11.6599 11.8152 15.7195 
469 1 106.42 7.96778 12.134 15.8149 
471 1 106.42 10.0202 11.9221 17.7574 
474 1 106.42 13.8154 13.5489 15.9387 
493 1 106.42 11.914 15.5596 15.8107 
476 1 106.42 11.8735 13.6939 17.8646 
480 1 106.42 15.8323 13.6419 17.7101 
497 1 106.42 15.7865 15.5879 16.0722 
478 1 106.42 17.6804 13.5542 15.7337 
464 1 106.42 19.5241 13.7866 17.5872 
499 1 106.42 17.7169 15.5494 17.5395 
82 1 106.42 2.0885 17.3834 19.3913 
482 1 106.42 1.93262 17.7377 15.8636 
403 1 106.42 2.10709 19.5851 17.5915 
407 1 106.42 5.62677 19.4892 17.839 
487 1 106.42 6.03897 15.779 17.2786 
488 1 106.42 4.08156 17.4585 17.9169 
89 1 106.42 7.9433 16.1798 19.611 
90 1 106.42 10.0563 17.7438 19.2708 
489 1 106.42 8.08971 15.954 15.7429 
491 1 106.42 9.97682 15.8264 17.6713 
490 1 106.42 10.0587 17.6684 15.6033 
492 1 106.42 8.12723 17.9417 17.6105 
13 1 106.42 11.8517 19.5174 19.2786 
495 1 106.42 13.8144 15.7535 17.6549 
496 1 106.42 11.9724 17.6179 17.3322 
500 1 106.42 15.9287 17.3299 17.9007 
484 1 106.42 19.6485 17.6429 17.7508 
419 1 106.42 17.5665 19.5879 17.6432 
