ITEM: TIMESTEP
900
ITEM: NUMBER OF ATOMS
501
ITEM: BOX BOUNDS pp pp pp
0.0000000000000000e+00 1.9629018200000001e+01
0.0000000000000000e+00 1.9629018200000001e+01
0.0000000000000000e+00 1.9629018200000001e+01
ITEM: ATOMS id type mass x y z 
1 1 106.42 19.5658 0.112684 19.5657 
2 1 106.42 1.85156 1.85023 19.5171 
3 1 106.42 1.91349 0.114936 2.10383 
4 1 106.42 0.0233184 2.20968 2.20202 
5 1 106.42 4.06874 0.0649625 0.0925194 
6 1 106.42 5.74566 2.13058 0.138317 
7 1 106.42 5.96133 0.20607 2.12915 
8 1 106.42 3.8167 2.02098 1.95535 
9 1 106.42 7.66965 19.6275 19.4364 
10 1 106.42 9.85894 1.90222 0.108828 
11 1 106.42 9.6902 0.188159 2.00282 
12 1 106.42 7.80567 2.08445 2.02837 
13 1 106.42 11.624 19.5309 19.4567 
14 1 106.42 13.8296 1.92129 0.0822422 
15 1 106.42 13.7193 19.4284 1.74567 
16 1 106.42 11.9629 1.82782 1.95095 
17 1 106.42 15.7916 19.6077 19.5574 
18 1 106.42 17.5163 1.99433 19.6147 
19 1 106.42 17.7831 0.0788168 1.81793 
20 1 106.42 15.6315 1.8237 1.99091 
21 1 106.42 19.6141 3.77481 0.202485 
22 1 106.42 1.73372 5.97238 19.5596 
23 1 106.42 2.05759 4.0801 2.14874 
24 1 106.42 0.113105 5.87956 1.92508 
25 1 106.42 3.80902 4.01375 0.0298729 
26 1 106.42 6.03561 6.05244 19.5417 
27 1 106.42 5.69342 4.19198 2.00621 
28 1 106.42 3.96618 6.07211 1.84059 
29 1 106.42 7.66956 3.8001 0.202368 
30 1 106.42 9.63433 5.84383 19.5102 
31 1 106.42 9.80546 3.9494 1.87091 
32 1 106.42 8.00464 5.91398 2.16832 
33 1 106.42 11.8363 3.79523 0.0034015 
34 1 106.42 13.8328 5.97835 0.0248108 
35 1 106.42 13.8788 3.90627 2.0435 
36 1 106.42 11.7261 5.80598 1.63093 
37 1 106.42 15.8148 4.0214 19.5739 
38 1 106.42 17.6609 5.79676 0.0430273 
39 1 106.42 17.6758 4.02985 2.12698 
40 1 106.42 15.8446 5.93739 2.10262 
41 1 106.42 19.4578 8.01778 19.4129 
42 1 106.42 2.07465 9.96039 0.00870166 
43 1 106.42 2.07286 7.78307 1.77889 
44 1 106.42 0.222133 9.89659 2.02123 
45 1 106.42 3.89105 7.72504 19.4109 
46 1 106.42 5.7445 9.66087 0.109847 
47 1 106.42 5.95377 7.85311 2.05996 
48 1 106.42 3.8465 9.86983 1.92892 
49 1 106.42 7.8161 7.84796 0.222998 
50 1 106.42 9.73271 9.75654 19.4207 
51 1 106.42 9.96103 7.733 1.79032 
52 1 106.42 8.11799 9.80763 2.10701 
53 1 106.42 11.8799 8.0257 19.5064 
54 1 106.42 13.9515 9.72048 0.157867 
55 1 106.42 13.8331 7.77368 2.08168 
56 1 106.42 11.775 9.93553 1.85423 
57 1 106.42 15.7745 7.99375 19.6332 
58 1 106.42 17.6679 9.7949 19.5845 
59 1 106.42 17.5358 7.93065 1.8449 
60 1 106.42 15.6679 9.95535 2.09034 
61 1 106.42 0.12465 11.8845 0.0709681 
62 1 106.42 2.01766 13.6288 19.5452 
63 1 106.42 1.9648 11.9859 1.96278 
64 1 106.42 0.0412788 13.8 2.0207 
65 1 106.42 4.17665 11.7108 0.0596156 
66 1 106.42 5.95186 13.7263 0.02551 
67 1 106.42 6.04714 11.7143 2.21305 
68 1 106.42 4.15397 13.5295 1.92053 
69 1 106.42 7.67766 11.6878 0.150283 
70 1 106.42 10.0841 13.698 19.5712 
71 1 106.42 9.71215 11.7771 1.90851 
72 1 106.42 7.87648 13.6348 2.01332 
73 1 106.42 11.7971 11.6975 19.5688 
74 1 106.42 13.5712 13.8761 0.0296912 
75 1 106.42 13.7988 11.7647 1.76611 
76 1 106.42 11.7446 13.6579 2.07992 
77 1 106.42 15.8887 11.804 19.6208 
78 1 106.42 17.8159 13.6898 19.5707 
79 1 106.42 17.8647 11.7369 2.11808 
80 1 106.42 15.7443 13.5943 1.86158 
81 1 106.42 19.5769 15.6006 0.151002 
82 1 106.42 1.9609 17.7808 0.0565167 
83 1 106.42 1.89019 15.8159 1.81236 
84 1 106.42 0.216426 17.7554 2.14453 
85 1 106.42 3.73714 15.4745 0.0560459 
86 1 106.42 5.74114 17.4038 19.6174 
87 1 106.42 5.93189 15.5795 1.94389 
88 1 106.42 3.99347 17.8116 2.08992 
89 1 106.42 7.91689 15.5605 19.4418 
90 1 106.42 9.81249 17.5695 19.585 
91 1 106.42 9.54689 15.7057 1.90687 
92 1 106.42 7.831 17.7863 1.74716 
93 1 106.42 11.7574 15.7665 0.228007 
94 1 106.42 13.8365 17.4768 19.5151 
95 1 106.42 13.5914 15.562 2.03434 
96 1 106.42 11.7182 17.6897 1.94448 
97 1 106.42 15.8073 15.494 19.4741 
98 1 106.42 17.787 17.7701 0.0302659 
99 1 106.42 17.6892 15.874 1.99624 
100 1 106.42 15.6441 17.7335 1.98361 
101 1 106.42 0.0752747 0.0956225 3.89536 
102 1 106.42 1.80871 2.08366 4.13466 
103 1 106.42 1.73081 19.4913 5.92299 
104 1 106.42 0.00661872 1.90037 6.01023 
105 1 106.42 3.88372 0.150602 4.11223 
106 1 106.42 5.96625 1.82635 4.08626 
107 1 106.42 6.06675 19.3793 5.77418 
108 1 106.42 3.91801 1.90466 5.95048 
109 1 106.42 7.91411 19.3616 3.7826 
110 1 106.42 9.93862 2.08983 3.86152 
111 1 106.42 9.56143 0.0897301 5.83741 
112 1 106.42 7.79938 1.89952 5.75847 
113 1 106.42 11.808 19.5325 3.76488 
114 1 106.42 13.6579 1.83799 4.00623 
115 1 106.42 13.6571 19.4435 5.85084 
116 1 106.42 11.7443 1.74774 5.78789 
117 1 106.42 15.792 0.0625444 3.96868 
118 1 106.42 17.5747 1.88275 3.85724 
119 1 106.42 17.715 0.120389 5.9754 
120 1 106.42 15.6318 1.89601 5.88589 
121 1 106.42 19.5146 4.09498 4.03796 
122 1 106.42 2.15892 5.91473 4.0339 
123 1 106.42 2.05614 3.79303 6.12134 
124 1 106.42 0.179894 5.90462 5.83253 
125 1 106.42 4.0668 3.78055 4.0401 
126 1 106.42 5.93083 5.94981 3.8487 
127 1 106.42 5.71471 3.96306 5.9409 
128 1 106.42 3.86667 6.01001 5.87295 
129 1 106.42 7.78906 3.86477 3.88374 
130 1 106.42 10.041 5.68277 3.85339 
131 1 106.42 9.98411 3.88912 6.00555 
132 1 106.42 7.83084 5.70487 6.06433 
133 1 106.42 11.883 3.89178 3.7656 
134 1 106.42 13.5835 5.82522 3.89918 
135 1 106.42 13.8192 3.8034 5.76639 
136 1 106.42 11.8401 5.96076 5.87659 
137 1 106.42 15.8456 3.92575 3.93296 
138 1 106.42 17.7882 6.0171 4.05761 
139 1 106.42 17.8271 3.79596 6.08401 
140 1 106.42 15.6722 5.82434 5.77059 
141 1 106.42 0.122611 7.82626 3.82937 
142 1 106.42 2.03051 9.92818 3.8798 
143 1 106.42 1.77083 8.04519 5.83475 
144 1 106.42 19.6168 9.93945 5.91354 
145 1 106.42 3.93248 8.02425 4.09441 
146 1 106.42 5.99406 9.60796 3.92617 
147 1 106.42 6.1992 7.73454 5.95838 
148 1 106.42 4.01831 9.60928 6.04663 
149 1 106.42 8.01964 7.87509 3.92028 
150 1 106.42 9.86042 9.80718 4.02065 
151 1 106.42 9.69578 7.56013 5.8642 
152 1 106.42 7.93297 9.61983 6.14089 
153 1 106.42 11.6837 7.84353 3.99296 
154 1 106.42 13.6686 9.89701 3.98082 
155 1 106.42 13.874 7.82404 6.00527 
156 1 106.42 11.7254 9.95115 5.74215 
157 1 106.42 15.7778 7.90707 4.06464 
158 1 106.42 17.7552 9.59346 3.78088 
159 1 106.42 17.8819 7.89867 5.9044 
160 1 106.42 15.6353 9.82851 5.87453 
161 1 106.42 0.0900431 11.7453 3.9728 
162 1 106.42 2.04648 13.8808 3.73253 
163 1 106.42 2.22747 11.7487 5.70726 
164 1 106.42 0.208678 13.6476 5.64283 
501 2 1.01 19.1387 14.2073 7.48623 
165 1 106.42 4.03402 11.689 3.86218 
166 1 106.42 5.91949 13.7983 4.15884 
167 1 106.42 5.82477 11.5728 5.80623 
168 1 106.42 4.07669 13.5391 6.06509 
169 1 106.42 7.87553 11.6613 4.18162 
170 1 106.42 9.79737 13.8073 3.99943 
171 1 106.42 9.59814 11.7395 5.99469 
172 1 106.42 7.91798 13.9272 6.14147 
173 1 106.42 11.6254 11.7915 3.72874 
174 1 106.42 13.8802 13.5204 3.94293 
175 1 106.42 13.7778 11.8555 5.79694 
176 1 106.42 11.6723 13.4977 5.85672 
177 1 106.42 15.8128 11.6804 3.95122 
178 1 106.42 17.6392 13.8156 3.83666 
179 1 106.42 17.7562 11.6698 5.80529 
180 1 106.42 15.9119 13.8156 5.72763 
181 1 106.42 19.5856 15.7145 3.87326 
182 1 106.42 2.09114 17.4889 3.94307 
183 1 106.42 1.89447 15.6147 5.91138 
184 1 106.42 19.3824 17.6648 5.75511 
185 1 106.42 3.84066 15.4887 3.74679 
186 1 106.42 5.79468 17.4799 3.83728 
187 1 106.42 5.53089 15.7872 5.82927 
188 1 106.42 3.7571 17.7284 5.75134 
189 1 106.42 7.77759 15.6839 4.02094 
190 1 106.42 10.0229 17.6082 3.95949 
191 1 106.42 9.99174 15.5979 6.18398 
192 1 106.42 7.81179 17.4545 5.79906 
193 1 106.42 11.675 15.585 4.08814 
194 1 106.42 13.5861 17.5566 3.92269 
195 1 106.42 13.6946 15.4745 5.82577 
196 1 106.42 11.7118 17.7816 6.10722 
197 1 106.42 15.5951 15.8485 3.9925 
198 1 106.42 17.7923 17.8926 3.73088 
199 1 106.42 17.7696 15.6732 5.77602 
200 1 106.42 15.8407 17.7834 5.75064 
201 1 106.42 19.6292 19.6027 7.89372 
202 1 106.42 2.08856 1.96269 7.96675 
203 1 106.42 1.88774 0.151487 9.92035 
204 1 106.42 19.458 1.91892 9.75152 
205 1 106.42 3.75064 19.4231 7.74177 
206 1 106.42 5.94681 2.10827 7.95468 
207 1 106.42 5.79509 0.236307 9.64562 
208 1 106.42 3.86889 2.06496 9.78955 
209 1 106.42 7.70716 0.090849 7.95513 
210 1 106.42 9.68483 1.98831 7.97253 
211 1 106.42 9.66246 19.4256 9.60243 
212 1 106.42 8.10746 1.95032 10.1516 
213 1 106.42 11.731 0.067357 7.93729 
214 1 106.42 13.7049 1.99302 7.70679 
215 1 106.42 13.7538 0.16479 9.78346 
216 1 106.42 11.6133 1.88163 9.76604 
217 1 106.42 15.602 19.5731 7.67482 
218 1 106.42 17.5316 1.82855 7.96923 
219 1 106.42 17.5205 19.6088 9.80012 
220 1 106.42 15.6707 1.78531 9.93928 
221 1 106.42 19.5899 3.83837 8.02756 
222 1 106.42 1.72508 6.00227 7.72928 
223 1 106.42 1.94295 3.88583 9.75926 
224 1 106.42 0.116561 5.63922 9.92682 
225 1 106.42 3.9618 4.12541 7.90166 
226 1 106.42 5.81461 6.00373 7.82148 
227 1 106.42 5.92426 3.95694 9.81011 
228 1 106.42 3.94043 5.89785 9.91414 
229 1 106.42 7.78651 3.76195 7.68587 
230 1 106.42 9.7124 5.91049 8.04657 
231 1 106.42 9.73662 3.95949 9.74728 
232 1 106.42 8.07426 5.83646 10.0363 
233 1 106.42 11.7182 4.0154 7.85811 
234 1 106.42 13.642 5.82808 7.91401 
235 1 106.42 13.7495 3.6644 9.77297 
236 1 106.42 11.944 5.75655 9.86512 
237 1 106.42 15.574 4.0442 7.92613 
238 1 106.42 17.783 5.98668 7.67808 
239 1 106.42 17.4958 3.90156 9.76881 
240 1 106.42 15.6289 6.00447 9.89045 
241 1 106.42 19.5433 8.05231 8.02493 
242 1 106.42 1.75105 9.97397 7.97412 
243 1 106.42 2.08539 7.77277 9.64598 
244 1 106.42 19.4222 9.89103 10.1289 
245 1 106.42 3.72472 7.7807 7.72071 
246 1 106.42 5.6595 9.59691 8.0066 
247 1 106.42 6.01492 7.59902 9.8055 
248 1 106.42 3.90907 9.57687 9.93694 
249 1 106.42 8.07173 7.8343 8.08098 
250 1 106.42 9.95585 9.90416 7.81054 
251 1 106.42 10.0002 8.05802 9.85641 
252 1 106.42 7.87986 9.75732 9.68183 
253 1 106.42 11.7301 7.65578 7.99815 
254 1 106.42 13.6468 9.95573 7.92745 
255 1 106.42 14.0233 8.00363 9.85093 
256 1 106.42 11.972 9.81554 9.77804 
257 1 106.42 15.8499 7.74432 7.89438 
258 1 106.42 17.6643 9.96285 7.95585 
259 1 106.42 17.7518 7.84633 9.84148 
260 1 106.42 15.7577 9.99294 9.79015 
261 1 106.42 19.5813 11.9365 7.95418 
262 1 106.42 1.93613 13.7154 8.01606 
263 1 106.42 2.07138 11.7832 9.98075 
264 1 106.42 0.186817 13.8494 9.82308 
265 1 106.42 3.75475 11.7057 7.85982 
266 1 106.42 5.79238 13.8465 8.02496 
267 1 106.42 5.69646 11.6682 9.60025 
268 1 106.42 3.886 13.7394 9.94608 
269 1 106.42 7.67513 11.7874 7.92157 
270 1 106.42 9.87956 13.5261 8.02612 
271 1 106.42 9.85124 11.6987 9.89646 
272 1 106.42 7.90604 13.6882 9.95881 
273 1 106.42 11.9676 11.89 7.6614 
274 1 106.42 13.8894 13.9523 8.08066 
275 1 106.42 13.8039 12.0283 9.75995 
276 1 106.42 11.6895 13.7661 9.82742 
277 1 106.42 15.5819 11.9113 7.54033 
278 1 106.42 17.5993 13.9558 7.73044 
279 1 106.42 17.6162 11.9612 9.65036 
280 1 106.42 15.8202 13.6376 9.8196 
281 1 106.42 0.0269187 15.8792 7.85086 
282 1 106.42 1.83283 17.6683 7.75955 
283 1 106.42 2.04594 15.8983 9.82678 
284 1 106.42 0.135907 17.7775 9.96625 
285 1 106.42 3.71986 15.5982 7.73256 
286 1 106.42 5.86263 17.4889 7.75285 
287 1 106.42 5.76875 15.671 9.83547 
288 1 106.42 4.04418 17.6677 9.65674 
289 1 106.42 7.70581 15.6623 7.89222 
290 1 106.42 9.70086 17.6805 7.66112 
291 1 106.42 9.67676 15.6451 9.80072 
292 1 106.42 7.74706 17.603 9.70022 
293 1 106.42 11.9625 15.58 7.84575 
294 1 106.42 13.7509 17.7309 7.94195 
295 1 106.42 13.998 15.8828 9.94721 
296 1 106.42 11.7291 17.7134 9.60409 
297 1 106.42 15.5741 15.7887 7.6819 
298 1 106.42 17.725 17.6517 7.79301 
299 1 106.42 17.7329 15.6261 9.78711 
300 1 106.42 15.8953 17.7173 9.56986 
301 1 106.42 0.0588257 0.100186 11.7445 
302 1 106.42 1.7032 2.17941 11.8133 
303 1 106.42 1.8086 19.5379 13.7184 
304 1 106.42 0.179454 1.93914 13.9378 
305 1 106.42 3.81705 19.5375 11.7788 
306 1 106.42 5.80946 1.86124 11.7703 
307 1 106.42 5.88115 19.5193 13.8333 
308 1 106.42 3.8519 1.81393 13.5295 
309 1 106.42 7.85188 -0.00204321 11.8515 
310 1 106.42 10.0104 2.07461 11.8654 
311 1 106.42 9.97641 0.0917249 13.599 
312 1 106.42 7.90176 2.10595 13.533 
313 1 106.42 11.8281 0.104542 11.5779 
314 1 106.42 13.8584 2.04324 11.8826 
315 1 106.42 13.6028 0.181221 13.7284 
316 1 106.42 11.7626 1.95663 14.0244 
317 1 106.42 15.4485 19.2631 11.7185 
318 1 106.42 17.6906 1.91928 11.743 
319 1 106.42 17.5612 19.5957 13.6406 
320 1 106.42 15.7908 1.78446 13.5859 
321 1 106.42 19.3854 4.01225 12.0086 
322 1 106.42 1.92503 5.98398 11.6614 
323 1 106.42 1.8532 4.1591 13.7368 
324 1 106.42 -0.00789471 5.92086 13.878 
325 1 106.42 3.73619 3.97667 11.6826 
326 1 106.42 5.99212 5.8589 11.8732 
327 1 106.42 5.63092 4.01725 13.8987 
328 1 106.42 3.88882 5.99547 13.8357 
329 1 106.42 7.63861 4.04465 11.9655 
330 1 106.42 9.99667 5.88525 11.7538 
331 1 106.42 9.76861 3.93174 13.7026 
332 1 106.42 7.68933 5.99339 13.7622 
333 1 106.42 11.9437 3.96787 11.8015 
334 1 106.42 13.7452 5.93562 11.7526 
335 1 106.42 13.6572 3.7956 13.8786 
336 1 106.42 11.7244 5.76858 13.8639 
337 1 106.42 15.4893 4.05391 11.7235 
338 1 106.42 17.6826 6.04649 11.5689 
339 1 106.42 17.4085 3.97619 13.5163 
340 1 106.42 15.71 5.86775 13.5219 
341 1 106.42 0.0950085 7.85323 11.7661 
342 1 106.42 2.12438 9.63875 11.7102 
343 1 106.42 1.90704 7.71027 13.7074 
344 1 106.42 0.0975938 9.66724 13.7841 
345 1 106.42 4.15604 7.63635 11.8476 
346 1 106.42 6.01764 9.67142 11.7382 
347 1 106.42 6.01561 7.94353 13.8256 
348 1 106.42 4.05977 9.71725 13.6591 
349 1 106.42 7.83767 7.89194 11.6104 
350 1 106.42 9.92131 9.67802 11.7932 
351 1 106.42 9.74391 7.80364 13.4802 
352 1 106.42 7.99919 9.61817 13.683 
353 1 106.42 11.8955 7.70536 11.6477 
354 1 106.42 13.9172 9.75392 11.7484 
355 1 106.42 13.6605 7.84565 13.7287 
356 1 106.42 11.7786 10.048 13.7364 
357 1 106.42 15.8303 7.95396 11.8862 
358 1 106.42 17.6215 10.0568 12.012 
359 1 106.42 17.6818 7.87168 13.607 
360 1 106.42 15.6977 9.77402 13.8799 
361 1 106.42 19.6022 11.8516 11.6651 
362 1 106.42 2.0281 13.6646 11.98 
363 1 106.42 1.73076 11.7647 13.7033 
364 1 106.42 19.5106 13.6961 13.6697 
365 1 106.42 4.16726 11.5896 11.7062 
366 1 106.42 5.91451 13.8509 11.6792 
367 1 106.42 6.04161 11.7613 13.5275 
368 1 106.42 4.10818 13.8318 13.746 
369 1 106.42 7.96294 11.5725 11.603 
370 1 106.42 9.7365 13.8957 11.8939 
371 1 106.42 9.74118 11.8269 13.7421 
372 1 106.42 7.98363 13.8662 13.7239 
373 1 106.42 11.6834 11.6766 11.6252 
374 1 106.42 13.7379 13.6622 11.7747 
375 1 106.42 13.8512 11.5958 13.7586 
376 1 106.42 11.6256 13.5819 13.6984 
377 1 106.42 15.8001 11.781 11.82 
378 1 106.42 17.7194 13.8913 11.6694 
379 1 106.42 17.5584 12.0811 13.9399 
380 1 106.42 15.6538 13.8994 13.7007 
381 1 106.42 0.166101 15.6424 11.7368 
382 1 106.42 2.06985 17.5265 11.7606 
383 1 106.42 2.05491 15.5935 13.7605 
384 1 106.42 0.0859232 17.6916 13.6984 
385 1 106.42 3.99147 15.7844 11.8666 
386 1 106.42 5.74566 17.7848 11.6831 
387 1 106.42 6.02422 15.7299 13.6463 
388 1 106.42 3.76259 17.7815 13.7719 
389 1 106.42 7.82532 15.9584 11.7946 
390 1 106.42 9.7923 17.8347 11.6009 
391 1 106.42 9.89252 15.6435 13.7715 
392 1 106.42 7.79629 17.5707 13.879 
393 1 106.42 11.6373 15.8287 11.4535 
394 1 106.42 13.4714 17.6284 11.7655 
395 1 106.42 13.4802 15.523 13.5488 
396 1 106.42 11.6872 17.5241 13.5739 
397 1 106.42 15.6848 15.9122 11.9019 
398 1 106.42 17.7709 17.6136 11.6192 
399 1 106.42 17.7868 15.7175 13.897 
400 1 106.42 15.4717 17.6951 13.7523 
401 1 106.42 0.0440403 19.5735 16.015 
402 1 106.42 2.09639 2.06828 15.8427 
403 1 106.42 2.0802 0.142047 17.7344 
404 1 106.42 19.5325 2.19872 17.8213 
405 1 106.42 3.85796 19.6059 15.8773 
406 1 106.42 5.92788 1.77863 15.6217 
407 1 106.42 5.90662 19.5483 17.7549 
408 1 106.42 4.21117 1.97059 17.6535 
409 1 106.42 7.82938 0.139406 15.6218 
410 1 106.42 9.63666 2.12278 15.6775 
411 1 106.42 9.85614 19.4401 17.4074 
412 1 106.42 7.92962 2.00796 17.6123 
413 1 106.42 11.7696 19.3231 15.5104 
414 1 106.42 14.0156 2.20858 15.7928 
415 1 106.42 13.5887 0.0477473 17.6963 
416 1 106.42 11.8456 1.9206 17.4231 
417 1 106.42 15.5043 19.6267 15.7571 
418 1 106.42 17.8177 2.10651 15.6039 
419 1 106.42 17.6851 0.165622 17.5758 
420 1 106.42 15.6187 1.85188 17.7151 
421 1 106.42 0.118089 3.87845 15.8281 
422 1 106.42 2.08221 5.92148 15.8043 
423 1 106.42 2.03902 4.07031 17.722 
424 1 106.42 0.0150298 5.98618 17.5223 
425 1 106.42 4.12454 3.76503 15.8115 
426 1 106.42 5.72813 6.09083 15.9247 
427 1 106.42 5.87026 4.02405 17.8074 
428 1 106.42 3.85848 5.86962 17.7853 
429 1 106.42 7.54205 3.89627 15.696 
430 1 106.42 9.52809 5.92789 15.4747 
431 1 106.42 9.84505 3.94424 17.6361 
432 1 106.42 7.82344 5.79388 17.7417 
433 1 106.42 11.6621 4.01699 15.6515 
434 1 106.42 13.9432 6.03116 15.5669 
435 1 106.42 13.7281 3.96621 17.6672 
436 1 106.42 11.6451 5.84483 17.579 
437 1 106.42 15.7923 4.09601 15.9353 
438 1 106.42 17.545 5.81411 15.4849 
439 1 106.42 17.6254 3.89637 17.6507 
440 1 106.42 15.589 6.06398 17.7739 
441 1 106.42 19.3736 7.79608 15.6613 
442 1 106.42 1.996 9.82525 15.4639 
443 1 106.42 1.87841 8.07966 17.4871 
444 1 106.42 19.5256 9.79571 17.4579 
445 1 106.42 3.92205 7.86147 15.7007 
446 1 106.42 5.92462 9.76767 15.6928 
447 1 106.42 5.89473 8.07864 17.7159 
448 1 106.42 3.81611 9.87995 17.4289 
449 1 106.42 7.84782 7.72911 15.8422 
450 1 106.42 9.91088 9.89082 15.7139 
451 1 106.42 9.77355 7.95073 17.5865 
452 1 106.42 7.76593 9.80776 17.6012 
453 1 106.42 11.5384 7.69499 15.6167 
454 1 106.42 13.484 9.77694 15.8158 
455 1 106.42 13.7506 7.92918 17.7313 
456 1 106.42 11.84 9.984 17.7011 
457 1 106.42 15.8031 7.87253 15.6637 
458 1 106.42 17.6023 9.99249 15.585 
459 1 106.42 17.5332 7.65385 17.5897 
460 1 106.42 15.6291 9.89438 17.5732 
461 1 106.42 19.6051 11.9597 15.8664 
462 1 106.42 1.92474 13.5927 15.8038 
463 1 106.42 1.87885 11.6162 17.6972 
464 1 106.42 19.4957 13.9562 17.6384 
465 1 106.42 3.79822 11.8132 15.4809 
466 1 106.42 5.97252 13.9004 15.657 
467 1 106.42 5.70629 11.8711 17.5592 
468 1 106.42 3.82153 13.5329 17.6515 
469 1 106.42 7.83009 11.6619 15.43 
470 1 106.42 9.96629 13.5898 16.0117 
471 1 106.42 9.52029 11.7446 17.6818 
472 1 106.42 7.69403 13.5373 17.7264 
473 1 106.42 11.8463 11.9639 15.8497 
474 1 106.42 13.7863 13.8292 15.4746 
475 1 106.42 13.7297 11.9532 17.656 
476 1 106.42 11.8895 13.8898 17.6646 
477 1 106.42 15.5901 11.8507 15.684 
478 1 106.42 17.6153 13.8598 15.8065 
479 1 106.42 17.8025 11.6846 17.7609 
480 1 106.42 15.5829 13.7172 17.55 
481 1 106.42 0.178312 15.682 15.6286 
482 1 106.42 2.02265 17.735 15.8943 
483 1 106.42 2.17202 15.5512 17.4608 
484 1 106.42 19.6348 17.4423 17.8983 
485 1 106.42 4.06791 15.8042 15.5547 
486 1 106.42 5.85668 17.6774 15.7245 
487 1 106.42 5.69483 15.5225 17.7446 
488 1 106.42 3.93651 17.6139 17.8348 
489 1 106.42 8.10106 15.4116 15.8738 
490 1 106.42 9.79881 17.5238 15.6142 
491 1 106.42 9.84743 15.6812 17.7254 
492 1 106.42 7.782 17.5787 17.4754 
493 1 106.42 11.7466 15.7722 15.5764 
494 1 106.42 13.7812 17.4942 15.8706 
495 1 106.42 13.5846 15.6124 17.4963 
496 1 106.42 11.7824 17.5 17.7999 
497 1 106.42 15.7618 15.7648 15.7012 
498 1 106.42 17.7398 17.8315 15.7211 
499 1 106.42 17.655 15.8111 17.5923 
500 1 106.42 15.7298 17.7255 17.699 
