ITEM: TIMESTEP
9200
ITEM: NUMBER OF ATOMS
501
ITEM: BOX BOUNDS pp pp pp
0.0000000000000000e+00 1.9629018200000001e+01
0.0000000000000000e+00 1.9629018200000001e+01
0.0000000000000000e+00 1.9629018200000001e+01
ITEM: ATOMS id type mass x y z 
23 1 106.42 1.95139 3.91395 2.17526 
8 1 106.42 3.83214 1.70995 1.95692 
4 1 106.42 0.0370126 1.98243 1.95634 
3 1 106.42 1.75478 0.169385 2.09692 
121 1 106.42 0.128545 3.63583 3.81333 
5 1 106.42 3.70913 0.0841316 0.0968331 
27 1 106.42 5.59928 3.89466 1.85038 
6 1 106.42 5.9314 1.65502 0.0431373 
25 1 106.42 3.93251 3.69856 0.0266859 
12 1 106.42 8.06947 1.64287 1.76547 
109 1 106.42 7.9717 0.0498862 3.87803 
16 1 106.42 12.0505 2.09255 1.78171 
20 1 106.42 15.4534 2.22721 2.33324 
39 1 106.42 17.6208 3.75808 2.19654 
19 1 106.42 17.6679 0.0197263 2.27518 
1 1 106.42 19.583 0.0769028 0.179742 
17 1 106.42 15.9347 0.303105 0.179457 
28 1 106.42 3.90243 5.97047 1.94943 
24 1 106.42 0.175904 5.6708 2.00956 
125 1 106.42 3.89452 4.01175 3.77905 
22 1 106.42 2.15191 5.61575 0.0102144 
29 1 106.42 7.61232 4.05774 0.0757357 
129 1 106.42 7.85153 3.97523 3.44672 
126 1 106.42 6.14166 5.92274 3.60173 
32 1 106.42 7.7879 6.08662 1.97081 
133 1 106.42 11.448 3.93071 3.73815 
31 1 106.42 9.6933 3.9809 1.78789 
130 1 106.42 9.71254 5.90799 3.58101 
36 1 106.42 11.6614 6.01175 1.60805 
35 1 106.42 13.5327 4.0241 2.13084 
40 1 106.42 15.4167 5.6745 2.04316 
157 1 106.42 15.4499 7.72819 3.83695 
59 1 106.42 17.643 7.56639 2.08638 
38 1 106.42 17.8943 5.55852 0.108733 
41 1 106.42 19.4038 7.62728 0.00191376 
43 1 106.42 1.71741 8.11336 1.636 
142 1 106.42 2.00985 9.71561 3.80057 
48 1 106.42 3.6942 10.0357 2.01933 
161 1 106.42 0.0856908 11.4079 3.77317 
47 1 106.42 6.05387 7.96614 2.04183 
46 1 106.42 5.74591 9.82354 0.0979931 
52 1 106.42 7.79729 10.1355 2.12539 
146 1 106.42 5.80863 9.8143 3.78737 
149 1 106.42 7.75119 8.0474 3.88119 
51 1 106.42 9.58941 7.94354 1.67693 
56 1 106.42 11.4712 9.84244 2.17859 
73 1 106.42 11.7206 11.6462 0.300648 
55 1 106.42 13.5201 8.02448 1.88208 
177 1 106.42 15.5676 11.746 3.79188 
154 1 106.42 13.7532 9.87673 3.73742 
54 1 106.42 13.6677 9.91168 0.266929 
60 1 106.42 15.7317 9.48295 1.84096 
44 1 106.42 19.5037 9.6649 1.76587 
158 1 106.42 17.5796 9.6963 3.44085 
63 1 106.42 1.94615 11.9794 1.73442 
162 1 106.42 1.84095 13.9306 3.54992 
68 1 106.42 3.82382 13.8234 1.66688 
67 1 106.42 5.89052 12.0997 2.08299 
165 1 106.42 4.00459 11.8523 3.84373 
72 1 106.42 7.71853 14.087 1.98593 
169 1 106.42 7.6382 11.9285 3.87483 
71 1 106.42 9.74633 12.1278 2.04092 
69 1 106.42 7.93973 12.0972 0.255785 
76 1 106.42 11.9868 13.6608 2.05897 
75 1 106.42 13.8089 11.8109 2.11487 
74 1 106.42 13.6543 13.4317 0.0822704 
80 1 106.42 15.6504 13.803 2.18175 
95 1 106.42 13.8596 15.6434 1.9843 
79 1 106.42 17.3891 11.7908 1.92836 
97 1 106.42 15.7316 15.5733 0.03634 
64 1 106.42 19.4289 13.7714 1.68904 
78 1 106.42 17.4923 13.6396 0.00554331 
178 1 106.42 17.6958 13.6585 3.63259 
185 1 106.42 3.79051 16.2057 3.75263 
83 1 106.42 1.86955 15.9281 2.11831 
88 1 106.42 3.79189 18.0019 1.93919 
84 1 106.42 0.0590346 17.5821 1.78564 
7 1 106.42 5.9723 19.4805 2.01176 
85 1 106.42 4.06497 15.7756 0.292221 
87 1 106.42 5.9603 16.0124 2.19498 
86 1 106.42 5.97393 17.4402 0.154323 
11 1 106.42 10.0048 19.5946 1.80507 
92 1 106.42 8.12895 17.8599 1.86182 
91 1 106.42 9.97519 15.7471 1.76865 
96 1 106.42 11.7192 17.8315 2.02701 
15 1 106.42 13.5949 19.4217 2.13439 
93 1 106.42 11.8313 15.8601 0.00049204 
100 1 106.42 15.6482 17.8895 1.83804 
181 1 106.42 19.5879 15.9337 3.8707 
99 1 106.42 17.5663 15.8495 2.03001 
98 1 106.42 17.5808 17.8385 0.193418 
101 1 106.42 0.172618 0.236795 4.04469 
102 1 106.42 2.20048 1.93404 3.96029 
123 1 106.42 1.85833 3.88625 5.87994 
106 1 106.42 5.93416 2.13545 3.95272 
108 1 106.42 3.93615 2.04288 5.78099 
112 1 106.42 7.71953 1.86497 5.97988 
127 1 106.42 6.14241 3.87804 5.59905 
225 1 106.42 4.16284 3.88632 7.59524 
105 1 106.42 4.06828 0.167334 3.93775 
107 1 106.42 5.7766 0.148341 5.95865 
229 1 106.42 7.69335 3.92236 7.67048 
110 1 106.42 10.1606 1.66046 4.03156 
210 1 106.42 9.62505 1.92151 7.65023 
137 1 106.42 15.6753 3.88588 4.08012 
117 1 106.42 15.4386 0.192168 4.04173 
116 1 106.42 12.0339 2.265 5.95636 
114 1 106.42 13.4518 2.03407 3.97139 
120 1 106.42 15.6803 2.05228 6.1361 
104 1 106.42 19.5237 1.825 6.0762 
118 1 106.42 17.432 1.92008 4.31773 
139 1 106.42 17.6124 3.86197 6.11505 
119 1 106.42 17.4105 0.00128552 5.97089 
122 1 106.42 1.91382 5.75232 4.08427 
141 1 106.42 0.128667 7.79419 3.95965 
124 1 106.42 0.0964301 5.92715 6.0264 
222 1 106.42 2.19208 5.69736 7.7038 
128 1 106.42 4.26752 5.91802 5.7501 
226 1 106.42 5.98538 5.92494 7.66627 
153 1 106.42 11.5235 7.67005 4.14705 
132 1 106.42 7.98626 6.09916 5.75022 
131 1 106.42 9.58236 4.02067 5.68165 
151 1 106.42 9.97796 7.71419 5.94141 
136 1 106.42 11.6458 5.7136 5.88253 
253 1 106.42 11.7677 7.72455 7.77439 
135 1 106.42 13.8383 4.02072 5.90072 
134 1 106.42 13.6382 5.84052 4.02494 
234 1 106.42 13.7447 5.95282 7.5016 
140 1 106.42 15.8048 5.67284 5.73775 
138 1 106.42 17.9105 5.9181 3.96332 
238 1 106.42 17.6798 6.01727 7.59642 
143 1 106.42 2.14012 7.85731 5.77872 
144 1 106.42 0.0920167 9.71258 5.76219 
261 1 106.42 0.0167229 11.7367 7.72877 
163 1 106.42 2.03107 11.5609 5.73898 
242 1 106.42 1.99261 9.80454 7.71862 
145 1 106.42 4.0624 7.87181 3.98453 
148 1 106.42 3.94161 9.92819 5.92123 
147 1 106.42 5.84091 7.97295 5.92404 
246 1 106.42 6.05349 10.0614 7.73149 
245 1 106.42 4.03988 7.99539 7.81304 
249 1 106.42 7.94354 7.99787 7.50164 
150 1 106.42 9.88072 9.83472 4.08308 
152 1 106.42 7.852 10.0343 5.75189 
156 1 106.42 11.7369 9.78243 5.77721 
250 1 106.42 9.97704 9.88003 7.73438 
155 1 106.42 13.5992 8.10715 5.84967 
160 1 106.42 15.6552 9.8026 5.79932 
254 1 106.42 13.8139 9.85625 7.72879 
159 1 106.42 17.7147 7.8863 5.62737 
257 1 106.42 15.7913 7.8791 7.82744 
179 1 106.42 17.6596 11.6364 5.50643 
258 1 106.42 17.8293 9.72875 7.70488 
277 1 106.42 16.0038 11.7501 7.71754 
168 1 106.42 3.72816 13.6863 5.78115 
164 1 106.42 0.263033 13.6238 5.63963 
265 1 106.42 3.749 11.9774 7.80615 
183 1 106.42 2.1244 15.6537 5.74931 
281 1 106.42 0.351514 15.5156 7.75368 
166 1 106.42 5.61993 14.0824 3.93186 
167 1 106.42 5.82924 12.0982 5.84107 
266 1 106.42 5.76589 13.8872 7.56926 
170 1 106.42 9.62129 13.7478 3.94232 
172 1 106.42 7.91121 13.9877 6.12734 
171 1 106.42 9.81224 11.7849 5.73532 
270 1 106.42 10.0059 13.5551 7.81538 
175 1 106.42 13.7871 11.9275 5.87599 
173 1 106.42 11.8375 11.9898 4.06701 
193 1 106.42 11.7972 15.5795 4.0884 
176 1 106.42 11.8228 13.8407 6.00475 
174 1 106.42 13.7559 14.0792 4.18777 
501 2 1.01 18.6246 13.4724 5.10453 
180 1 106.42 15.7924 13.5617 5.57673 
199 1 106.42 17.7671 15.6792 6.17852 
182 1 106.42 2.03744 17.8304 4.05144 
103 1 106.42 1.93862 19.5324 5.81921 
188 1 106.42 3.91862 17.7781 5.92164 
205 1 106.42 3.73214 19.5917 7.70475 
186 1 106.42 5.80318 17.8052 4.08453 
187 1 106.42 6.13985 15.8629 6.10586 
192 1 106.42 7.84008 17.8311 6.0333 
189 1 106.42 8.04256 15.7811 4.03511 
190 1 106.42 9.8194 17.671 4.02757 
111 1 106.42 9.8902 19.5675 5.95911 
191 1 106.42 9.7863 15.9235 6.12295 
196 1 106.42 11.7202 17.6781 5.99347 
195 1 106.42 13.6946 15.7559 6.18461 
113 1 106.42 11.8457 19.5862 3.9963 
115 1 106.42 13.8794 19.5724 5.99814 
194 1 106.42 13.6245 17.3965 4.02342 
200 1 106.42 15.4466 17.4562 6.01778 
184 1 106.42 19.4541 17.5393 6.09885 
197 1 106.42 15.9068 15.7897 3.96387 
198 1 106.42 17.6984 17.6576 4.04503 
201 1 106.42 19.583 19.6045 7.76687 
298 1 106.42 17.3182 17.632 7.67866 
202 1 106.42 1.80128 1.94281 8.0601 
203 1 106.42 1.8056 0.09713 10.0818 
208 1 106.42 3.94586 1.91365 9.89182 
206 1 106.42 5.7853 1.87115 7.93809 
212 1 106.42 7.8338 2.23601 9.65407 
306 1 106.42 5.88712 1.87978 11.7206 
209 1 106.42 7.75361 0.117587 7.93616 
211 1 106.42 9.792 0.210071 9.87808 
329 1 106.42 7.90815 3.88928 11.7417 
213 1 106.42 11.9265 0.179588 7.9903 
214 1 106.42 13.9387 1.85001 7.88491 
216 1 106.42 11.7836 2.24772 9.99433 
314 1 106.42 13.705 2.24318 11.4971 
215 1 106.42 13.5348 0.0990025 9.98503 
313 1 106.42 11.7851 0.107575 11.6993 
218 1 106.42 17.593 1.80366 7.99959 
204 1 106.42 19.5757 1.77179 9.8865 
221 1 106.42 19.5404 3.81497 7.87385 
220 1 106.42 15.8204 2.18727 9.74995 
239 1 106.42 17.7611 3.86376 9.94763 
321 1 106.42 19.5763 3.64777 11.7167 
241 1 106.42 0.255938 7.81439 7.98539 
223 1 106.42 2.25728 4.01773 9.8501 
243 1 106.42 2.14204 7.69754 9.85478 
322 1 106.42 1.90726 5.7791 11.5851 
227 1 106.42 5.79674 3.93575 9.64663 
228 1 106.42 4.0293 5.99043 9.57771 
232 1 106.42 7.68027 5.94855 9.74687 
247 1 106.42 5.9856 7.7571 10.0526 
231 1 106.42 9.75092 4.05662 9.72188 
233 1 106.42 11.6034 4.21409 7.86521 
230 1 106.42 9.54823 5.80933 8.02811 
236 1 106.42 11.6573 6.1219 9.57898 
251 1 106.42 9.65102 7.79421 9.72078 
235 1 106.42 13.8331 4.33916 9.55306 
337 1 106.42 15.6767 4.10629 11.7704 
240 1 106.42 15.5184 6.03917 9.72981 
237 1 106.42 15.7539 3.93748 7.87211 
224 1 106.42 19.5325 5.87012 9.50402 
259 1 106.42 17.6487 7.72033 9.69016 
341 1 106.42 19.6001 7.5579 11.7004 
342 1 106.42 2.10343 9.81787 11.7482 
248 1 106.42 3.84866 9.93796 9.62455 
365 1 106.42 3.93954 11.7122 11.7308 
252 1 106.42 7.85981 9.78364 9.63992 
256 1 106.42 11.5207 9.64836 9.87109 
255 1 106.42 13.511 7.96835 9.79316 
275 1 106.42 13.6409 11.3732 9.8851 
273 1 106.42 11.8416 11.6194 7.89351 
354 1 106.42 13.4291 9.59701 11.7269 
377 1 106.42 15.6816 11.5278 11.7464 
244 1 106.42 19.5385 9.69846 9.98448 
260 1 106.42 15.8031 9.73345 9.81176 
279 1 106.42 17.8081 11.7191 9.73538 
357 1 106.42 15.8701 7.87319 11.6049 
263 1 106.42 2.0612 11.8557 9.74249 
262 1 106.42 1.77368 13.6461 7.91441 
283 1 106.42 2.11121 15.6646 10.0752 
264 1 106.42 0.147314 13.733 9.80869 
267 1 106.42 5.87663 11.8572 9.83962 
268 1 106.42 4.15253 13.7797 9.67665 
287 1 106.42 6.00291 15.6285 9.67798 
272 1 106.42 7.97297 13.884 9.87434 
269 1 106.42 7.97559 11.9767 8.06251 
271 1 106.42 9.82402 11.8255 10.0829 
291 1 106.42 10.0766 15.5422 10.0447 
293 1 106.42 11.7204 15.5992 7.96172 
276 1 106.42 11.9855 13.5638 9.96106 
274 1 106.42 13.8232 13.3825 7.9509 
295 1 106.42 13.7135 15.6567 9.87854 
280 1 106.42 15.6428 13.5644 9.97373 
278 1 106.42 17.9138 13.737 7.92547 
299 1 106.42 17.5358 15.6085 9.8011 
381 1 106.42 0.0334352 15.7087 11.7576 
285 1 106.42 3.78194 15.8337 7.92612 
282 1 106.42 1.78381 17.8467 7.95558 
288 1 106.42 3.74767 17.5054 10.0453 
286 1 106.42 5.7009 17.7473 7.94322 
207 1 106.42 6.14254 19.4689 10.0385 
386 1 106.42 5.92675 17.4228 11.6811 
289 1 106.42 8.02138 15.8137 7.9892 
290 1 106.42 9.73704 18.151 8.00834 
292 1 106.42 8.05633 17.5854 9.86687 
296 1 106.42 11.6929 17.5797 9.68858 
217 1 106.42 15.6959 19.4855 8.14165 
294 1 106.42 13.6559 17.6541 8.10348 
300 1 106.42 15.6349 17.8048 9.82469 
317 1 106.42 15.6578 19.4533 11.7611 
219 1 106.42 17.6208 19.5282 10.0733 
297 1 106.42 15.758 15.7198 8.04672 
284 1 106.42 19.6014 17.4691 9.61675 
398 1 106.42 17.7391 17.4087 11.7031 
302 1 106.42 1.98523 1.87001 12.1419 
323 1 106.42 2.06427 3.88168 13.9706 
304 1 106.42 0.0131244 2.03281 13.9094 
425 1 106.42 3.83237 3.91116 15.6835 
325 1 106.42 3.97181 3.90844 11.8448 
308 1 106.42 3.98139 1.77461 13.7569 
312 1 106.42 7.745 2.25258 13.9941 
327 1 106.42 5.73634 3.83355 13.8088 
310 1 106.42 9.62652 2.03502 11.8428 
311 1 106.42 10.0005 0.0912932 13.6309 
316 1 106.42 11.7573 1.96122 13.7892 
410 1 106.42 9.73518 2.10246 15.5584 
309 1 106.42 7.99916 0.188136 11.9329 
320 1 106.42 15.463 2.02837 13.4133 
414 1 106.42 13.8132 2.057 15.6802 
413 1 106.42 11.8872 0.0815533 15.6809 
318 1 106.42 17.6316 1.86831 11.855 
301 1 106.42 19.6125 0.0399914 11.9518 
339 1 106.42 17.6431 3.73353 13.6103 
418 1 106.42 17.576 1.87895 15.5106 
324 1 106.42 0.0843978 5.5628 13.6972 
328 1 106.42 3.7542 6.07581 13.5827 
422 1 106.42 1.89765 5.7551 15.702 
326 1 106.42 5.62133 5.57674 11.8351 
332 1 106.42 7.32728 5.77372 13.736 
347 1 106.42 5.55446 7.73916 13.9163 
333 1 106.42 11.6379 4.01921 11.7961 
331 1 106.42 9.77731 4.14023 13.7635 
330 1 106.42 9.67157 5.94395 11.8363 
336 1 106.42 11.6896 5.93054 13.8387 
430 1 106.42 9.69099 6.0462 15.6663 
353 1 106.42 11.3726 7.80125 11.9285 
334 1 106.42 13.6038 6.00985 11.7961 
335 1 106.42 13.6706 4.13005 13.9331 
355 1 106.42 13.7137 7.83459 13.5504 
437 1 106.42 15.7557 3.94397 15.5387 
340 1 106.42 15.7385 5.78927 13.4519 
338 1 106.42 17.6872 5.78089 11.8004 
359 1 106.42 17.6935 7.78071 13.8513 
438 1 106.42 17.5812 5.69344 15.6936 
345 1 106.42 3.79705 7.88513 11.8221 
343 1 106.42 1.83269 7.90279 13.6904 
441 1 106.42 0.0272984 7.88047 15.5762 
344 1 106.42 0.0349468 9.59598 13.5575 
363 1 106.42 1.81746 11.6563 13.9719 
348 1 106.42 3.91499 9.80937 13.8656 
445 1 106.42 3.72112 7.87103 15.6595 
349 1 106.42 7.70645 7.89853 11.9986 
346 1 106.42 5.80528 9.67527 11.8017 
352 1 106.42 7.61712 9.84319 13.9373 
350 1 106.42 9.58149 9.83205 11.7881 
351 1 106.42 9.60709 8.03764 13.7469 
356 1 106.42 11.6773 9.85713 13.7999 
371 1 106.42 9.83763 11.5596 13.8823 
450 1 106.42 9.72793 9.88542 15.6591 
457 1 106.42 15.4748 7.86456 15.5343 
373 1 106.42 11.8584 11.6671 11.8572 
360 1 106.42 15.6876 9.60478 13.6377 
375 1 106.42 13.8395 11.6131 13.6022 
477 1 106.42 15.5756 11.4561 15.5991 
358 1 106.42 17.6566 9.84696 12.0383 
458 1 106.42 17.5896 9.73521 15.6625 
361 1 106.42 19.5347 11.6755 11.8304 
362 1 106.42 2.04851 13.4655 11.8612 
383 1 106.42 2.09052 15.5616 13.6598 
462 1 106.42 2.02319 13.7091 15.5648 
364 1 106.42 0.0201303 13.5709 13.8393 
367 1 106.42 5.83383 11.8398 13.5915 
366 1 106.42 6.07145 13.7661 11.9514 
368 1 106.42 4.11347 13.7869 13.7194 
385 1 106.42 4.22707 15.6729 11.8909 
466 1 106.42 5.90056 13.841 15.6694 
469 1 106.42 7.83274 12.0543 15.6877 
369 1 106.42 7.86245 11.8109 12.0929 
370 1 106.42 10.089 13.7179 11.8309 
372 1 106.42 7.9226 13.8981 13.707 
470 1 106.42 9.83634 13.9072 15.6409 
376 1 106.42 12.0765 13.8382 13.7038 
374 1 106.42 13.9039 13.4857 11.9771 
380 1 106.42 15.5992 13.6553 13.9432 
379 1 106.42 17.4741 11.9029 13.9155 
378 1 106.42 17.5712 13.7502 11.8122 
399 1 106.42 17.5272 15.689 13.7978 
481 1 106.42 19.5418 15.4633 15.5905 
478 1 106.42 17.7395 13.6859 15.5815 
305 1 106.42 3.88914 19.5105 11.8081 
303 1 106.42 2.03025 19.5568 13.8848 
382 1 106.42 1.9066 17.5691 11.8954 
388 1 106.42 3.86859 17.5237 13.6585 
405 1 106.42 4.11161 19.3294 15.5685 
485 1 106.42 3.94806 15.8191 15.5654 
387 1 106.42 6.13982 15.782 13.8022 
307 1 106.42 5.97033 19.4681 13.6739 
486 1 106.42 6.07499 17.9591 15.7029 
390 1 106.42 9.98054 17.7536 11.7888 
389 1 106.42 8.23987 15.8033 11.8191 
391 1 106.42 9.95795 15.7042 13.7531 
392 1 106.42 7.89543 17.865 13.735 
489 1 106.42 8.04899 15.8624 15.5994 
490 1 106.42 10.0149 17.9059 15.6664 
397 1 106.42 15.5734 15.762 11.8956 
394 1 106.42 13.4612 17.704 11.9609 
315 1 106.42 13.7799 19.616 13.8907 
395 1 106.42 13.9752 15.7463 13.9975 
396 1 106.42 11.9933 17.5982 13.8254 
393 1 106.42 11.9561 15.7555 11.9364 
417 1 106.42 15.6595 19.5818 15.3798 
319 1 106.42 17.7602 19.5015 13.6336 
384 1 106.42 19.5994 17.7105 13.7679 
400 1 106.42 15.8156 17.5765 13.634 
2 1 106.42 1.80718 2.12498 19.5892 
402 1 106.42 1.90736 1.96508 15.7989 
408 1 106.42 3.8371 1.99855 17.6588 
421 1 106.42 0.00439919 3.90811 15.7183 
21 1 106.42 0.158302 3.92273 19.5571 
406 1 106.42 5.7319 1.62773 15.8253 
427 1 106.42 5.72419 3.71309 17.5993 
10 1 106.42 9.91896 1.80324 19.5291 
33 1 106.42 11.7071 3.74262 19.4375 
409 1 106.42 8.01821 0.172356 15.7203 
412 1 106.42 8.01197 1.85714 17.6308 
411 1 106.42 10.0932 0.103395 17.4698 
431 1 106.42 9.66141 3.84534 17.8929 
433 1 106.42 11.7318 3.75014 15.7371 
14 1 106.42 13.8026 1.75209 19.4719 
416 1 106.42 11.89 1.99815 17.6295 
435 1 106.42 14.005 3.90565 17.4577 
18 1 106.42 17.5313 2.08461 19.5764 
401 1 106.42 19.513 0.0713864 15.7816 
404 1 106.42 19.4797 1.99271 17.7073 
420 1 106.42 15.8877 1.92117 17.3718 
439 1 106.42 17.7752 3.76925 17.7414 
419 1 106.42 17.8385 0.0995234 17.5893 
45 1 106.42 3.8003 7.80123 19.4441 
423 1 106.42 1.9196 3.98765 17.7484 
428 1 106.42 3.78463 5.7707 17.6374 
443 1 106.42 2.00141 7.56515 17.8361 
26 1 106.42 5.72393 5.94781 19.5691 
426 1 106.42 5.83984 5.74721 15.9483 
432 1 106.42 7.70824 5.93823 17.7974 
447 1 106.42 5.83765 7.76708 17.6913 
429 1 106.42 7.91125 4.09158 15.8662 
30 1 106.42 9.74122 5.68677 19.4735 
451 1 106.42 9.99834 7.63227 17.5341 
436 1 106.42 11.7001 5.69867 17.5172 
37 1 106.42 15.6896 3.96633 19.5285 
434 1 106.42 13.7155 5.99069 15.7164 
453 1 106.42 11.8667 7.80104 15.8556 
34 1 106.42 13.9279 5.65555 19.6113 
455 1 106.42 13.5941 7.73456 17.8303 
57 1 106.42 15.7618 7.48294 19.5187 
424 1 106.42 19.6292 5.89938 17.6296 
440 1 106.42 15.8106 6.00424 17.5613 
459 1 106.42 18.0614 7.84935 17.3947 
442 1 106.42 2.01868 9.59546 15.7943 
42 1 106.42 1.68974 9.96759 19.5358 
448 1 106.42 3.90836 9.87852 17.6717 
444 1 106.42 0.131656 9.77624 17.5369 
463 1 106.42 2.00275 11.7409 17.6016 
446 1 106.42 5.90572 9.91477 15.9447 
452 1 106.42 7.7156 9.99982 17.9154 
53 1 106.42 11.4575 8.07857 19.4694 
449 1 106.42 7.95355 7.93572 15.7815 
49 1 106.42 7.86225 8.00464 19.5065 
50 1 106.42 9.64294 10.1203 19.5614 
456 1 106.42 11.5765 9.97049 17.8373 
454 1 106.42 13.5144 9.76247 15.9166 
460 1 106.42 15.5195 9.40863 17.7764 
475 1 106.42 13.6355 11.6286 17.5682 
77 1 106.42 15.4894 11.4742 19.3836 
473 1 106.42 11.7922 11.7383 15.7362 
58 1 106.42 17.6097 9.39486 19.6012 
61 1 106.42 19.3794 11.7653 19.5815 
461 1 106.42 19.4013 11.7399 15.7194 
479 1 106.42 17.7446 11.6341 17.6512 
62 1 106.42 1.6907 13.59 19.3968 
65 1 106.42 3.89842 11.8341 19.4351 
465 1 106.42 3.9129 11.8093 15.7563 
483 1 106.42 2.10281 15.5558 17.3719 
464 1 106.42 0.0586017 13.5223 17.5649 
66 1 106.42 6.07287 13.8623 19.5199 
468 1 106.42 3.975 14.0367 17.7369 
467 1 106.42 5.92181 12.1287 17.6906 
70 1 106.42 10.0101 13.7865 19.5567 
472 1 106.42 8.11901 14.1112 17.8878 
471 1 106.42 9.61872 12.0546 17.4913 
491 1 106.42 10.0403 15.6538 17.5248 
474 1 106.42 13.7933 13.6869 15.8441 
493 1 106.42 12.0352 15.5994 15.7048 
476 1 106.42 11.7783 13.5772 17.7168 
495 1 106.42 13.9048 15.6458 17.737 
480 1 106.42 16.0219 13.5909 17.83 
497 1 106.42 15.8221 15.6363 15.8521 
499 1 106.42 17.8159 15.5081 17.7086 
82 1 106.42 1.87131 17.5772 19.3659 
482 1 106.42 2.21583 17.7492 15.7684 
403 1 106.42 2.14864 19.5112 17.89 
484 1 106.42 0.0942809 17.5469 17.6637 
407 1 106.42 5.75566 19.4372 17.6695 
487 1 106.42 6.12904 15.9377 17.2705 
488 1 106.42 4.04994 17.5834 17.7625 
492 1 106.42 7.7542 17.9196 17.6001 
9 1 106.42 8.03784 19.4613 19.5397 
89 1 106.42 8.10712 16.0512 19.5958 
90 1 106.42 10.0597 17.7587 19.4645 
94 1 106.42 13.6603 17.9025 19.6103 
494 1 106.42 14.0441 17.5807 15.7051 
415 1 106.42 14.2315 19.5726 17.6258 
13 1 106.42 12.0216 19.5883 19.5168 
496 1 106.42 12.0681 17.6674 17.6148 
81 1 106.42 19.4108 15.7071 19.3512 
498 1 106.42 17.7266 17.5935 15.8569 
500 1 106.42 15.9635 17.5354 17.9177 
