ITEM: TIMESTEP
9300
ITEM: NUMBER OF ATOMS
501
ITEM: BOX BOUNDS pp pp pp
0.0000000000000000e+00 1.9629018200000001e+01
0.0000000000000000e+00 1.9629018200000001e+01
0.0000000000000000e+00 1.9629018200000001e+01
ITEM: ATOMS id type mass x y z 
23 1 106.42 1.96289 3.93713 2.18691 
8 1 106.42 3.85179 1.67836 1.952 
4 1 106.42 0.0376707 1.97838 1.97913 
3 1 106.42 1.72422 0.170533 2.10696 
121 1 106.42 0.140832 3.61544 3.77897 
5 1 106.42 3.73154 0.0496416 0.103926 
27 1 106.42 5.59569 3.89036 1.8551 
6 1 106.42 5.91025 1.65684 0.0546992 
25 1 106.42 3.91678 3.69485 0.0263767 
12 1 106.42 8.08694 1.63589 1.72821 
109 1 106.42 7.92116 0.0595088 3.85839 
16 1 106.42 12.0669 2.08507 1.81074 
20 1 106.42 15.4258 2.26056 2.36635 
39 1 106.42 17.6078 3.75076 2.15996 
19 1 106.42 17.6544 -0.0106089 2.2558 
1 1 106.42 19.5851 0.0842253 0.139941 
17 1 106.42 15.9523 0.322703 0.196382 
28 1 106.42 3.88406 5.97857 1.96929 
24 1 106.42 0.164441 5.70433 2.02325 
125 1 106.42 3.90065 4.01397 3.74372 
22 1 106.42 2.12408 5.65082 0.0510181 
29 1 106.42 7.60882 4.07287 0.0737209 
129 1 106.42 7.87957 3.9698 3.47592 
126 1 106.42 6.14519 5.86196 3.62106 
32 1 106.42 7.82145 6.0878 1.97512 
133 1 106.42 11.4561 3.9631 3.74008 
31 1 106.42 9.68426 3.97579 1.77124 
130 1 106.42 9.70662 5.92039 3.56771 
36 1 106.42 11.6418 6.02233 1.62842 
35 1 106.42 13.5236 4.02562 2.09342 
40 1 106.42 15.4836 5.67216 2.05601 
157 1 106.42 15.4568 7.7202 3.82008 
59 1 106.42 17.6519 7.53565 2.12093 
38 1 106.42 17.9165 5.59177 0.0339084 
41 1 106.42 19.374 7.63012 0.0120409 
43 1 106.42 1.75135 8.0809 1.65398 
142 1 106.42 2.0478 9.6897 3.84096 
48 1 106.42 3.67388 10.0541 2.04852 
161 1 106.42 0.0967496 11.4103 3.75036 
47 1 106.42 6.0516 7.99742 2.04454 
46 1 106.42 5.76268 9.77924 0.104888 
52 1 106.42 7.81407 10.1436 2.14828 
146 1 106.42 5.78229 9.81381 3.76682 
149 1 106.42 7.76368 8.05906 3.8811 
51 1 106.42 9.56951 7.93144 1.66937 
56 1 106.42 11.4653 9.7912 2.18925 
73 1 106.42 11.7195 11.644 0.320353 
55 1 106.42 13.5336 7.99994 1.90785 
177 1 106.42 15.5575 11.8018 3.79809 
154 1 106.42 13.8284 9.86079 3.71137 
54 1 106.42 13.6935 9.9001 0.2706 
60 1 106.42 15.7694 9.49777 1.79158 
44 1 106.42 19.5293 9.68639 1.7732 
158 1 106.42 17.5425 9.67375 3.45423 
63 1 106.42 1.93319 11.9711 1.72016 
162 1 106.42 1.84147 13.9255 3.56878 
68 1 106.42 3.8011 13.7868 1.63734 
67 1 106.42 5.86581 12.1535 2.06511 
165 1 106.42 4.01116 11.8507 3.90059 
72 1 106.42 7.76714 14.0964 2.0186 
169 1 106.42 7.60659 11.9034 3.83646 
71 1 106.42 9.77623 12.114 2.0635 
69 1 106.42 7.93809 12.1149 0.260961 
76 1 106.42 12.0112 13.659 2.06974 
75 1 106.42 13.8113 11.7839 2.13493 
74 1 106.42 13.6187 13.4617 0.0426473 
80 1 106.42 15.6973 13.7778 2.14662 
95 1 106.42 13.8376 15.6544 1.9895 
79 1 106.42 17.39 11.8041 1.93567 
97 1 106.42 15.7516 15.5793 0.00638953 
64 1 106.42 19.4123 13.7561 1.6976 
78 1 106.42 17.5098 13.6568 0.00115145 
178 1 106.42 17.7413 13.6372 3.6101 
185 1 106.42 3.80573 16.2268 3.76568 
83 1 106.42 1.90535 15.8851 2.10586 
88 1 106.42 3.77837 18.0082 1.95793 
84 1 106.42 0.0540271 17.5856 1.81046 
7 1 106.42 5.97859 19.4753 2.00195 
85 1 106.42 4.08206 15.8367 0.264159 
87 1 106.42 5.95315 15.989 2.24909 
86 1 106.42 5.97219 17.3875 0.14543 
11 1 106.42 9.97744 19.6103 1.77323 
92 1 106.42 8.10347 17.8246 1.87107 
91 1 106.42 9.99231 15.7362 1.75837 
96 1 106.42 11.6746 17.8088 2.02766 
15 1 106.42 13.5925 19.4128 2.14371 
93 1 106.42 11.8116 15.8714 -0.0144549 
100 1 106.42 15.6239 17.923 1.81553 
181 1 106.42 19.5891 15.9436 3.89098 
99 1 106.42 17.5502 15.8199 2.0242 
98 1 106.42 17.5543 17.8302 0.180634 
101 1 106.42 0.15929 0.205973 4.07171 
102 1 106.42 2.19901 1.97717 3.9518 
123 1 106.42 1.86047 3.8956 5.9024 
106 1 106.42 5.92422 2.14897 3.95964 
108 1 106.42 3.91012 2.05392 5.78289 
112 1 106.42 7.7588 1.90286 5.967 
127 1 106.42 6.12089 3.85301 5.6123 
225 1 106.42 4.1499 3.89942 7.58678 
105 1 106.42 4.07949 0.207971 3.91769 
107 1 106.42 5.75922 0.154039 5.96054 
229 1 106.42 7.67002 3.91187 7.60064 
110 1 106.42 10.1651 1.64191 4.02922 
210 1 106.42 9.63843 1.89078 7.68636 
137 1 106.42 15.6621 3.88063 4.11739 
117 1 106.42 15.4476 0.191676 4.05114 
116 1 106.42 12.0298 2.24306 5.96054 
114 1 106.42 13.4962 2.04433 3.93797 
120 1 106.42 15.6789 2.07843 6.16014 
104 1 106.42 19.5301 1.83028 6.04481 
118 1 106.42 17.3816 1.88821 4.32084 
139 1 106.42 17.6703 3.87575 6.11252 
119 1 106.42 17.4199 -0.0384466 5.9749 
122 1 106.42 1.91016 5.77121 4.11704 
141 1 106.42 0.13749 7.76131 3.98075 
124 1 106.42 0.108703 5.92981 5.99931 
222 1 106.42 2.1639 5.67724 7.67351 
128 1 106.42 4.26019 5.92159 5.78672 
226 1 106.42 5.97773 5.92278 7.67846 
153 1 106.42 11.5526 7.66721 4.10977 
132 1 106.42 7.97899 6.09978 5.76601 
131 1 106.42 9.60458 4.01129 5.64355 
151 1 106.42 10.0064 7.76513 5.93109 
136 1 106.42 11.5957 5.72279 5.89644 
253 1 106.42 11.7629 7.69743 7.77541 
135 1 106.42 13.8556 4.02555 5.85943 
134 1 106.42 13.6362 5.81132 4.03333 
234 1 106.42 13.7897 5.98618 7.48657 
140 1 106.42 15.7733 5.70842 5.71412 
138 1 106.42 17.8563 5.95819 3.96893 
238 1 106.42 17.6554 6.02813 7.65827 
143 1 106.42 2.167 7.88001 5.78955 
144 1 106.42 0.0937525 9.70732 5.74436 
261 1 106.42 0.0343724 11.7262 7.74554 
163 1 106.42 2.01555 11.5319 5.75849 
242 1 106.42 1.98735 9.78421 7.70034 
145 1 106.42 4.10572 7.88506 4.02742 
148 1 106.42 3.93836 9.93055 5.88493 
147 1 106.42 5.88998 8.00354 5.88711 
246 1 106.42 6.06037 10.0621 7.76788 
245 1 106.42 4.03394 7.9647 7.82177 
249 1 106.42 7.95298 7.99549 7.51497 
150 1 106.42 9.87035 9.8809 4.06574 
152 1 106.42 7.84524 10.0233 5.77433 
156 1 106.42 11.7969 9.77191 5.75205 
250 1 106.42 9.94074 9.86495 7.75184 
155 1 106.42 13.6411 8.07559 5.8766 
160 1 106.42 15.6654 9.8374 5.78953 
254 1 106.42 13.8328 9.87417 7.71174 
159 1 106.42 17.6606 7.91424 5.63707 
257 1 106.42 15.8358 7.85264 7.81423 
179 1 106.42 17.6147 11.6456 5.51011 
258 1 106.42 17.8372 9.73194 7.71725 
277 1 106.42 16.0298 11.804 7.6996 
168 1 106.42 3.73696 13.6911 5.77069 
164 1 106.42 0.234741 13.6497 5.63601 
265 1 106.42 3.75668 11.975 7.80803 
183 1 106.42 2.16463 15.6538 5.79008 
281 1 106.42 0.354677 15.5036 7.74872 
166 1 106.42 5.58753 14.0977 3.94339 
167 1 106.42 5.8304 12.0883 5.83153 
266 1 106.42 5.81407 13.8752 7.57843 
170 1 106.42 9.61842 13.7355 3.95871 
172 1 106.42 7.86609 13.9894 6.15512 
171 1 106.42 9.80545 11.7647 5.72243 
270 1 106.42 9.9652 13.5725 7.81353 
175 1 106.42 13.7744 11.9527 5.87632 
173 1 106.42 11.8366 11.9906 4.07293 
193 1 106.42 11.8085 15.5922 4.05946 
176 1 106.42 11.8018 13.8287 5.98694 
174 1 106.42 13.7369 14.0723 4.2066 
501 2 1.01 18.3423 13.5477 4.8415 
180 1 106.42 15.7731 13.5791 5.59752 
199 1 106.42 17.7892 15.6406 6.17005 
182 1 106.42 2.04343 17.8223 4.07688 
103 1 106.42 1.90583 19.5312 5.85476 
188 1 106.42 3.91973 17.7612 5.94603 
205 1 106.42 3.70866 19.6074 7.71183 
186 1 106.42 5.83174 17.8101 4.11628 
187 1 106.42 6.12221 15.8624 6.08228 
192 1 106.42 7.81243 17.8352 5.98569 
189 1 106.42 8.02899 15.7697 4.06662 
190 1 106.42 9.80304 17.6956 4.07627 
111 1 106.42 9.87727 19.5931 5.92673 
191 1 106.42 9.81617 15.9061 6.1568 
196 1 106.42 11.7245 17.677 6.01393 
195 1 106.42 13.693 15.7474 6.17597 
113 1 106.42 11.8395 19.5678 3.9876 
115 1 106.42 13.8557 19.5568 5.99018 
194 1 106.42 13.6219 17.3595 4.04199 
200 1 106.42 15.4175 17.4502 5.98589 
184 1 106.42 19.4275 17.5501 6.0758 
197 1 106.42 15.933 15.7971 3.96196 
198 1 106.42 17.7127 17.6651 4.05275 
201 1 106.42 19.5695 19.5947 7.77803 
298 1 106.42 17.3282 17.6628 7.67764 
202 1 106.42 1.77767 1.94121 8.06954 
203 1 106.42 1.81492 0.104081 10.1131 
208 1 106.42 3.94642 1.864 9.91498 
206 1 106.42 5.78245 1.82801 7.94154 
212 1 106.42 7.86119 2.26051 9.63587 
306 1 106.42 5.85851 1.90457 11.7347 
209 1 106.42 7.77568 0.152377 7.94285 
211 1 106.42 9.7351 0.20153 9.88726 
329 1 106.42 7.88252 3.86196 11.7618 
213 1 106.42 11.9526 0.201025 7.99376 
214 1 106.42 13.9122 1.8636 7.9098 
216 1 106.42 11.7518 2.2604 9.99728 
314 1 106.42 13.6795 2.23536 11.4966 
215 1 106.42 13.5418 0.104469 9.93115 
313 1 106.42 11.7501 0.0743683 11.7213 
218 1 106.42 17.5979 1.81027 8.02161 
204 1 106.42 19.5559 1.81982 9.93323 
221 1 106.42 19.5607 3.84927 7.80569 
220 1 106.42 15.777 2.16038 9.7973 
239 1 106.42 17.7172 3.89638 9.92954 
321 1 106.42 19.5901 3.6085 11.7317 
241 1 106.42 0.294093 7.81551 8.03425 
223 1 106.42 2.25186 3.97331 9.86452 
243 1 106.42 2.12741 7.71821 9.8521 
322 1 106.42 1.89306 5.77358 11.5386 
227 1 106.42 5.8337 3.91286 9.66562 
228 1 106.42 4.04731 6.005 9.58251 
232 1 106.42 7.6914 5.96308 9.75866 
247 1 106.42 5.96857 7.73238 10.0226 
231 1 106.42 9.74058 4.04687 9.72125 
233 1 106.42 11.6309 4.21705 7.87056 
230 1 106.42 9.58187 5.78451 7.99078 
236 1 106.42 11.6633 6.08403 9.53576 
251 1 106.42 9.62014 7.76901 9.71469 
235 1 106.42 13.805 4.33412 9.5698 
337 1 106.42 15.6517 4.11027 11.7382 
240 1 106.42 15.5338 6.00159 9.75467 
237 1 106.42 15.7695 3.94944 7.87278 
224 1 106.42 19.5625 5.89481 9.47517 
259 1 106.42 17.5959 7.72492 9.73248 
341 1 106.42 19.6135 7.5461 11.6559 
342 1 106.42 2.08366 9.83588 11.7619 
248 1 106.42 3.88948 9.95189 9.63032 
365 1 106.42 3.92146 11.695 11.7073 
252 1 106.42 7.90286 9.79187 9.62377 
256 1 106.42 11.4803 9.64107 9.8626 
255 1 106.42 13.521 7.97575 9.80818 
275 1 106.42 13.6288 11.3738 9.8835 
273 1 106.42 11.8293 11.6235 7.86885 
354 1 106.42 13.4656 9.6119 11.7655 
377 1 106.42 15.7073 11.5379 11.7555 
244 1 106.42 19.5205 9.74676 9.9861 
260 1 106.42 15.8344 9.73823 9.80186 
279 1 106.42 17.8223 11.7653 9.7354 
357 1 106.42 15.8635 7.84044 11.635 
263 1 106.42 2.06677 11.856 9.76436 
262 1 106.42 1.75392 13.5981 7.90663 
283 1 106.42 2.11961 15.6946 10.0688 
264 1 106.42 0.150205 13.751 9.83382 
267 1 106.42 5.88014 11.8606 9.84499 
268 1 106.42 4.08903 13.7917 9.64372 
287 1 106.42 6.0385 15.5741 9.71011 
272 1 106.42 7.99363 13.873 9.88214 
269 1 106.42 7.94653 11.974 8.06619 
271 1 106.42 9.84049 11.824 10.0564 
291 1 106.42 10.0228 15.5509 10.024 
293 1 106.42 11.7347 15.5852 7.93969 
276 1 106.42 12.0311 13.5772 9.93356 
274 1 106.42 13.8091 13.4247 7.96775 
295 1 106.42 13.7222 15.6643 9.86443 
280 1 106.42 15.6575 13.5078 9.97511 
278 1 106.42 17.9365 13.7232 7.95557 
299 1 106.42 17.5233 15.6319 9.77826 
381 1 106.42 0.00308186 15.6896 11.7924 
285 1 106.42 3.84689 15.8022 7.91214 
282 1 106.42 1.84053 17.861 7.94376 
288 1 106.42 3.72464 17.4988 9.9692 
286 1 106.42 5.74998 17.7731 7.95887 
207 1 106.42 6.1098 19.4952 9.99884 
386 1 106.42 5.8933 17.4034 11.6824 
289 1 106.42 7.99415 15.7826 7.95239 
290 1 106.42 9.72829 18.1408 8.01085 
292 1 106.42 8.03691 17.5874 9.91551 
296 1 106.42 11.7362 17.5756 9.69737 
217 1 106.42 15.6615 19.4961 8.13138 
294 1 106.42 13.6554 17.6558 8.10802 
300 1 106.42 15.6159 17.771 9.81977 
317 1 106.42 15.7006 19.4453 11.7969 
219 1 106.42 17.651 19.4892 10.0663 
297 1 106.42 15.7896 15.708 8.05336 
284 1 106.42 19.6339 17.4652 9.63456 
398 1 106.42 17.7236 17.3964 11.7387 
302 1 106.42 2.00067 1.8295 12.1792 
323 1 106.42 2.03205 3.8909 13.9616 
304 1 106.42 0.025889 2.00624 13.9061 
425 1 106.42 3.80134 3.94604 15.6594 
325 1 106.42 3.95798 3.92742 11.8989 
308 1 106.42 3.97871 1.74275 13.7706 
312 1 106.42 7.78072 2.27234 13.9766 
327 1 106.42 5.67807 3.78546 13.8347 
310 1 106.42 9.6571 2.03922 11.7923 
311 1 106.42 9.98241 0.0997023 13.6428 
316 1 106.42 11.7897 1.94886 13.7935 
410 1 106.42 9.73946 2.08103 15.5796 
309 1 106.42 7.97707 0.194401 11.9407 
320 1 106.42 15.4424 2.04067 13.4059 
414 1 106.42 13.7781 2.04493 15.6876 
413 1 106.42 11.8707 0.0619028 15.6888 
318 1 106.42 17.6112 1.85418 11.8499 
301 1 106.42 19.6503 0.0217388 11.916 
339 1 106.42 17.658 3.76972 13.6244 
418 1 106.42 17.582 1.88426 15.5203 
324 1 106.42 0.0865685 5.59047 13.6612 
328 1 106.42 3.72475 6.09328 13.5689 
422 1 106.42 1.88956 5.74944 15.6839 
326 1 106.42 5.63904 5.5514 11.8679 
332 1 106.42 7.33042 5.76461 13.7365 
347 1 106.42 5.57174 7.77275 13.8951 
333 1 106.42 11.6212 4.02364 11.7964 
331 1 106.42 9.76047 4.17503 13.7866 
330 1 106.42 9.67574 5.98187 11.8053 
336 1 106.42 11.744 5.93103 13.8499 
430 1 106.42 9.73845 6.05243 15.7092 
353 1 106.42 11.3618 7.79056 11.9258 
334 1 106.42 13.5855 6.01894 11.7801 
335 1 106.42 13.675 4.13912 13.9537 
355 1 106.42 13.7117 7.83731 13.567 
437 1 106.42 15.7429 3.94661 15.5168 
340 1 106.42 15.7656 5.80933 13.4166 
338 1 106.42 17.7219 5.77285 11.7504 
359 1 106.42 17.6788 7.79095 13.878 
438 1 106.42 17.561 5.68925 15.7101 
345 1 106.42 3.7778 7.94133 11.8972 
343 1 106.42 1.84357 7.91104 13.6664 
441 1 106.42 0.0401282 7.85559 15.5676 
344 1 106.42 0.00337031 9.60389 13.5783 
363 1 106.42 1.81884 11.6916 13.9778 
348 1 106.42 3.86433 9.84239 13.8476 
445 1 106.42 3.68858 7.84972 15.6492 
349 1 106.42 7.71208 7.89922 11.9738 
346 1 106.42 5.77173 9.69321 11.7639 
352 1 106.42 7.62663 9.82796 13.9682 
350 1 106.42 9.5562 9.8479 11.821 
351 1 106.42 9.62148 8.02627 13.7369 
356 1 106.42 11.6755 9.81927 13.7738 
371 1 106.42 9.83247 11.5411 13.8967 
450 1 106.42 9.7715 9.89535 15.6691 
457 1 106.42 15.4525 7.88962 15.5365 
373 1 106.42 11.8669 11.664 11.8422 
360 1 106.42 15.6641 9.60542 13.6223 
375 1 106.42 13.8798 11.6435 13.5867 
477 1 106.42 15.5706 11.4476 15.6105 
358 1 106.42 17.6042 9.82194 12.0052 
458 1 106.42 17.5817 9.75174 15.647 
361 1 106.42 19.5919 11.6467 11.831 
362 1 106.42 2.05437 13.5029 11.862 
383 1 106.42 2.09242 15.581 13.6817 
462 1 106.42 2.01111 13.7208 15.5986 
364 1 106.42 0.00375779 13.5252 13.7996 
367 1 106.42 5.83698 11.8654 13.6102 
366 1 106.42 6.0808 13.7631 11.9274 
368 1 106.42 4.07736 13.8199 13.7319 
385 1 106.42 4.2035 15.6635 11.8667 
466 1 106.42 5.93046 13.8644 15.6241 
469 1 106.42 7.79323 12.0178 15.6659 
369 1 106.42 7.87545 11.7958 12.1111 
370 1 106.42 10.1022 13.7105 11.8312 
372 1 106.42 7.89783 13.9099 13.6755 
470 1 106.42 9.84281 13.9321 15.6509 
376 1 106.42 12.0641 13.7908 13.6943 
374 1 106.42 13.9269 13.506 11.9546 
380 1 106.42 15.6173 13.6439 13.9353 
379 1 106.42 17.4927 11.963 13.8936 
378 1 106.42 17.5552 13.7439 11.8022 
399 1 106.42 17.5363 15.6935 13.8028 
481 1 106.42 19.5159 15.4842 15.5857 
478 1 106.42 17.7191 13.7183 15.5773 
305 1 106.42 3.89639 19.5112 11.8029 
303 1 106.42 2.0072 19.5277 13.8957 
382 1 106.42 1.90867 17.5925 11.8847 
388 1 106.42 3.88036 17.559 13.6343 
405 1 106.42 4.11976 19.3085 15.5801 
485 1 106.42 3.99631 15.8291 15.5649 
387 1 106.42 6.11507 15.7396 13.7808 
307 1 106.42 5.99109 19.4813 13.6954 
486 1 106.42 6.07296 17.9368 15.7026 
390 1 106.42 9.98094 17.7302 11.8132 
389 1 106.42 8.20781 15.7778 11.7597 
391 1 106.42 9.96591 15.6932 13.7929 
392 1 106.42 7.82847 17.8729 13.7101 
489 1 106.42 8.05555 15.8423 15.584 
490 1 106.42 9.9998 17.9287 15.6896 
397 1 106.42 15.5841 15.7604 11.8991 
394 1 106.42 13.4633 17.6706 11.9578 
315 1 106.42 13.8465 19.6313 13.878 
395 1 106.42 13.9724 15.7426 14.008 
396 1 106.42 12.0231 17.6272 13.8418 
393 1 106.42 11.9406 15.7289 11.9417 
417 1 106.42 15.6338 19.6192 15.379 
319 1 106.42 17.739 19.4786 13.6444 
384 1 106.42 19.5954 17.7087 13.7626 
400 1 106.42 15.8027 17.5868 13.6195 
2 1 106.42 1.82871 2.08383 19.5869 
402 1 106.42 1.87919 1.946 15.7967 
408 1 106.42 3.85232 2.00144 17.6771 
421 1 106.42 0.00994931 3.93014 15.7065 
21 1 106.42 0.160406 3.95278 19.5744 
406 1 106.42 5.73085 1.64955 15.8195 
427 1 106.42 5.76389 3.71174 17.5875 
10 1 106.42 9.93493 1.78436 19.4688 
33 1 106.42 11.7172 3.69386 19.4184 
409 1 106.42 8.0154 0.20837 15.707 
412 1 106.42 8.00244 1.8728 17.6504 
411 1 106.42 10.1174 0.0735689 17.4204 
431 1 106.42 9.67069 3.81528 17.869 
433 1 106.42 11.682 3.73939 15.7153 
14 1 106.42 13.7809 1.80809 19.4363 
416 1 106.42 11.9202 1.98022 17.6174 
435 1 106.42 14.006 3.88788 17.4477 
18 1 106.42 17.6068 2.1404 19.6058 
401 1 106.42 19.5534 0.0924381 15.8148 
404 1 106.42 19.4624 2.03076 17.7132 
420 1 106.42 15.8805 1.93655 17.3573 
439 1 106.42 17.8027 3.75254 17.7384 
419 1 106.42 17.8681 0.0934738 17.5973 
45 1 106.42 3.82095 7.76568 19.4377 
423 1 106.42 1.87395 3.99097 17.7247 
428 1 106.42 3.8005 5.75311 17.6312 
443 1 106.42 2.00316 7.55957 17.8371 
26 1 106.42 5.72688 5.95855 19.5858 
426 1 106.42 5.8126 5.74856 15.9685 
432 1 106.42 7.72028 5.98572 17.8063 
447 1 106.42 5.82647 7.73887 17.6971 
429 1 106.42 7.90434 4.05477 15.8795 
30 1 106.42 9.67982 5.67538 19.5067 
451 1 106.42 10.0021 7.63917 17.5574 
436 1 106.42 11.6963 5.71925 17.527 
37 1 106.42 15.673 3.95914 19.5301 
434 1 106.42 13.7222 5.98205 15.7607 
453 1 106.42 11.9174 7.81797 15.8312 
34 1 106.42 13.891 5.65445 19.627 
455 1 106.42 13.5646 7.74064 17.853 
57 1 106.42 15.7227 7.475 19.5071 
424 1 106.42 19.6384 5.89785 17.6503 
440 1 106.42 15.8115 6.00707 17.6013 
459 1 106.42 18.0736 7.8587 17.4215 
442 1 106.42 2.001 9.57215 15.8305 
42 1 106.42 1.70507 9.93529 19.5559 
448 1 106.42 3.8948 9.85837 17.655 
444 1 106.42 0.141289 9.78865 17.5035 
463 1 106.42 2.02955 11.7133 17.5671 
446 1 106.42 5.933 9.89495 15.9342 
452 1 106.42 7.72551 10.0095 17.9561 
53 1 106.42 11.4369 8.04128 19.4571 
449 1 106.42 7.94481 7.95196 15.7627 
49 1 106.42 7.86687 8.01065 19.495 
50 1 106.42 9.64739 10.1422 19.5894 
456 1 106.42 11.5249 9.98254 17.8534 
454 1 106.42 13.5271 9.77592 15.9272 
460 1 106.42 15.5214 9.38042 17.7854 
475 1 106.42 13.6258 11.6446 17.5676 
77 1 106.42 15.4953 11.4562 19.4208 
473 1 106.42 11.8119 11.7421 15.7313 
58 1 106.42 17.6412 9.4113 19.5604 
61 1 106.42 19.3945 11.7573 19.5761 
461 1 106.42 19.4233 11.7378 15.7364 
479 1 106.42 17.7271 11.6798 17.6293 
62 1 106.42 1.73413 13.5445 19.3918 
65 1 106.42 3.89949 11.8394 19.4264 
465 1 106.42 3.8925 11.8189 15.7721 
483 1 106.42 2.11127 15.5411 17.3571 
464 1 106.42 0.0736717 13.4799 17.5461 
66 1 106.42 6.09903 13.8867 19.4985 
468 1 106.42 3.97705 14.0577 17.7455 
467 1 106.42 5.92147 12.1061 17.6576 
70 1 106.42 10.0241 13.7816 19.5607 
472 1 106.42 8.16728 14.1805 17.8849 
471 1 106.42 9.54846 12.0473 17.4544 
491 1 106.42 10.0509 15.6428 17.5011 
474 1 106.42 13.7959 13.7026 15.8323 
493 1 106.42 12.0386 15.6163 15.6962 
476 1 106.42 11.7834 13.5714 17.6891 
495 1 106.42 13.909 15.6167 17.7693 
480 1 106.42 16.0068 13.577 17.8086 
497 1 106.42 15.8327 15.6357 15.8013 
499 1 106.42 17.8253 15.5137 17.7265 
82 1 106.42 1.84111 17.5975 19.4026 
482 1 106.42 2.22621 17.7415 15.747 
403 1 106.42 2.12268 19.519 17.9071 
484 1 106.42 0.0875198 17.5442 17.6278 
407 1 106.42 5.78564 19.4599 17.6702 
487 1 106.42 6.13039 15.9529 17.3082 
488 1 106.42 4.04237 17.5836 17.7342 
492 1 106.42 7.71769 17.8899 17.598 
9 1 106.42 8.01642 19.4413 19.5258 
89 1 106.42 8.12752 15.996 19.5822 
90 1 106.42 10.0653 17.7599 19.4972 
94 1 106.42 13.6099 17.8771 19.607 
494 1 106.42 14.0438 17.5915 15.7561 
415 1 106.42 14.2562 19.5365 17.6194 
13 1 106.42 12.028 19.6192 19.5625 
496 1 106.42 12.0802 17.6793 17.6539 
81 1 106.42 19.4184 15.755 19.3179 
498 1 106.42 17.7367 17.6087 15.8662 
500 1 106.42 15.9588 17.5974 17.9106 
