ITEM: TIMESTEP
93500
ITEM: NUMBER OF ATOMS
501
ITEM: BOX BOUNDS pp pp pp
0.0000000000000000e+00 1.9629018200000001e+01
0.0000000000000000e+00 1.9629018200000001e+01
0.0000000000000000e+00 1.9629018200000001e+01
ITEM: ATOMS id type mass x y z 
121 1 106.42 0.196868 3.86304 3.80104 
3 1 106.42 1.70195 0.373731 1.864 
23 1 106.42 2.06126 3.80611 1.97749 
102 1 106.42 2.1611 2.00086 3.78591 
8 1 106.42 4.11906 1.90719 1.93735 
106 1 106.42 5.91738 1.56947 3.64878 
125 1 106.42 4.09883 3.97628 3.73476 
25 1 106.42 4.07455 3.96491 0.151361 
12 1 106.42 7.85351 2.22662 2.01948 
9 1 106.42 7.96067 0.0878125 0.118457 
129 1 106.42 7.55966 3.84268 3.87418 
16 1 106.42 11.6463 1.89683 2.16058 
33 1 106.42 11.6824 3.72045 0.272495 
113 1 106.42 11.5829 -0.0308634 3.86831 
20 1 106.42 15.5941 1.90185 2.05623 
14 1 106.42 13.4173 1.75303 0.248915 
37 1 106.42 15.4147 3.376 0.0428891 
35 1 106.42 13.7372 3.72009 1.79405 
133 1 106.42 11.7704 3.76038 3.89944 
4 1 106.42 19.5111 2.11499 2.03324 
19 1 106.42 17.6303 0.0823115 1.85178 
39 1 106.42 17.4199 3.85714 2.09865 
1 1 106.42 19.3133 0.170429 -0.090632 
118 1 106.42 17.7473 2.04231 3.85536 
18 1 106.42 17.7681 2.03631 0.214411 
43 1 106.42 2.24457 7.82343 2.00053 
122 1 106.42 1.94545 5.9291 3.88168 
22 1 106.42 1.95688 5.65727 -0.0468758 
28 1 106.42 4.1151 6.07565 1.85553 
27 1 106.42 6.01808 4.39839 1.93573 
26 1 106.42 6.121 6.04559 0.0371903 
31 1 106.42 9.66871 3.97638 2.08473 
32 1 106.42 8.09029 5.96518 2.19854 
36 1 106.42 11.6389 5.58678 1.96548 
51 1 106.42 9.85498 7.73942 1.99502 
134 1 106.42 13.7105 5.63872 3.83618 
153 1 106.42 11.8474 7.80244 3.884 
55 1 106.42 13.7999 7.67626 1.72172 
157 1 106.42 15.5822 7.76516 3.90714 
34 1 106.42 14.0387 5.54313 0.041951 
40 1 106.42 15.831 5.89777 1.96406 
24 1 106.42 19.6515 5.69583 1.74179 
38 1 106.42 17.4341 5.85637 -0.0848103 
48 1 106.42 3.73593 9.95626 2.07066 
44 1 106.42 0.379995 9.72148 1.92504 
63 1 106.42 1.84477 11.751 1.7926 
47 1 106.42 5.90493 7.83891 2.09319 
52 1 106.42 7.74638 9.99984 2.12145 
146 1 106.42 5.56063 10.0212 3.65578 
49 1 106.42 7.76159 7.93826 0.347324 
46 1 106.42 5.77641 9.86234 0.258057 
150 1 106.42 9.97838 9.79774 3.70323 
56 1 106.42 11.7757 9.75445 2.08817 
50 1 106.42 9.67741 9.69368 0.305226 
75 1 106.42 13.754 11.6491 2.01518 
59 1 106.42 18.0245 7.76971 2.03283 
60 1 106.42 15.6747 9.62729 1.97347 
79 1 106.42 17.4639 11.8014 1.81524 
58 1 106.42 17.9017 9.85722 0.186405 
158 1 106.42 17.5868 9.67721 3.69071 
62 1 106.42 1.90649 13.8559 -0.0423264 
162 1 106.42 2.04544 13.9108 3.61565 
83 1 106.42 2.01956 15.7479 1.92421 
68 1 106.42 4.24988 14.0177 1.87582 
67 1 106.42 5.80451 11.8502 1.71785 
165 1 106.42 3.93651 11.9612 3.88312 
71 1 106.42 10.2573 11.9947 1.74817 
72 1 106.42 7.9802 13.8274 1.75179 
169 1 106.42 7.84277 11.9327 3.77288 
93 1 106.42 11.6627 15.6482 -0.0514695 
189 1 106.42 8.0775 15.7201 3.81906 
76 1 106.42 11.9201 13.6094 1.92691 
80 1 106.42 15.6474 13.6669 1.66979 
197 1 106.42 15.6107 15.5522 4.01421 
64 1 106.42 19.3371 13.6754 1.87214 
178 1 106.42 17.5389 13.8657 3.9323 
78 1 106.42 17.7096 13.7828 0.108174 
105 1 106.42 3.92328 19.4669 3.92587 
181 1 106.42 0.220207 15.7397 3.76527 
82 1 106.42 2.17704 17.7436 0.121481 
182 1 106.42 2.22407 17.5507 3.66746 
84 1 106.42 0.351132 17.9538 2.11038 
7 1 106.42 5.85403 19.5182 1.51247 
88 1 106.42 4.14966 17.7646 2.02537 
87 1 106.42 5.80356 15.7976 1.8755 
186 1 106.42 6.09234 17.7736 3.56425 
92 1 106.42 8.02807 17.6554 1.99597 
91 1 106.42 9.88917 15.659 2.03783 
11 1 106.42 9.87306 19.3766 1.97762 
13 1 106.42 11.639 19.3688 0.137175 
109 1 106.42 8.04514 19.6295 3.59147 
90 1 106.42 9.79292 17.595 0.234504 
95 1 106.42 13.7382 15.8911 1.86966 
17 1 106.42 15.3177 19.6277 0.0752997 
96 1 106.42 11.9172 17.7452 2.02825 
15 1 106.42 13.813 19.6977 2.30424 
81 1 106.42 19.7086 16.1176 0.334395 
99 1 106.42 17.6198 15.7921 2.36399 
100 1 106.42 15.7226 17.6688 1.99173 
98 1 106.42 17.6901 17.5883 0.230086 
101 1 106.42 0.137559 0.146989 4.24734 
202 1 106.42 1.96199 1.72353 7.70599 
108 1 106.42 3.78507 2.10694 5.80054 
123 1 106.42 1.97574 3.93446 6.11942 
103 1 106.42 2.07531 0.0179899 5.80832 
112 1 106.42 7.58954 1.95392 5.9712 
127 1 106.42 5.81075 3.88139 5.8368 
107 1 106.42 5.86335 0.250326 5.94661 
110 1 106.42 9.69253 1.91734 3.92412 
116 1 106.42 11.6419 1.83378 5.84851 
111 1 106.42 9.74197 0.0155588 5.86457 
210 1 106.42 9.73528 1.91611 7.8063 
213 1 106.42 11.6853 0.168393 7.82407 
114 1 106.42 13.7836 2.11119 4.04587 
214 1 106.42 13.7082 2.0956 7.80226 
137 1 106.42 15.4396 3.9108 3.98343 
120 1 106.42 15.9496 2.03522 5.89674 
104 1 106.42 19.458 2.11777 6.09725 
119 1 106.42 17.5957 0.141433 5.83217 
124 1 106.42 0.287096 6.14659 5.92251 
222 1 106.42 1.93266 6.02473 7.72724 
128 1 106.42 4.06167 5.88015 5.80803 
225 1 106.42 3.99636 3.93096 7.87487 
126 1 106.42 5.8228 5.9639 3.98792 
132 1 106.42 7.78022 5.78157 5.99373 
226 1 106.42 5.86163 5.82575 7.78641 
249 1 106.42 8.02493 7.77471 7.83107 
130 1 106.42 9.73935 5.82927 4.0673 
131 1 106.42 9.46795 3.88093 5.80915 
136 1 106.42 11.7051 5.88472 5.87762 
230 1 106.42 9.82335 5.81559 7.64955 
135 1 106.42 13.5566 4.00055 5.85156 
155 1 106.42 13.4888 7.76797 5.76815 
138 1 106.42 17.8702 5.86945 4.02469 
140 1 106.42 15.7599 5.91492 5.7034 
139 1 106.42 17.655 4.08701 5.89445 
238 1 106.42 17.6815 6.10333 7.5447 
237 1 106.42 15.9517 4.07676 7.68232 
142 1 106.42 1.78783 10.3498 4.13944 
143 1 106.42 2.18969 7.99156 6.19279 
141 1 106.42 0.0706766 7.93048 3.83802 
145 1 106.42 3.97827 7.8689 4.05135 
148 1 106.42 3.94811 9.99387 5.82648 
147 1 106.42 5.96098 8.1069 6.16134 
167 1 106.42 5.80878 11.7876 5.72412 
246 1 106.42 6.06346 9.90996 7.89818 
152 1 106.42 7.7463 9.94829 5.84292 
149 1 106.42 7.8491 7.87395 4.16526 
151 1 106.42 9.82959 8.22576 5.86977 
171 1 106.42 9.87932 11.7364 6.04433 
154 1 106.42 13.8762 9.68011 4.13303 
156 1 106.42 11.9242 9.99233 5.86433 
175 1 106.42 13.6189 11.8093 5.95301 
160 1 106.42 15.5107 9.76308 6.15913 
177 1 106.42 15.6986 11.5623 3.96759 
159 1 106.42 17.7019 7.9313 5.80439 
144 1 106.42 19.5506 9.61807 6.11468 
179 1 106.42 17.7519 11.5358 6.12838 
163 1 106.42 1.91208 11.9804 6.19764 
164 1 106.42 -0.00600772 14.1721 5.86643 
261 1 106.42 0.108994 11.9886 7.77723 
166 1 106.42 6.19699 13.8858 3.95193 
168 1 106.42 4.00409 13.7128 5.94057 
266 1 106.42 5.94011 13.5482 7.82815 
172 1 106.42 7.67013 13.338 5.87303 
285 1 106.42 4.33461 15.5869 7.57804 
170 1 106.42 10.0822 13.5068 4.01758 
191 1 106.42 9.65216 15.3884 5.74378 
173 1 106.42 11.996 11.7449 3.97053 
174 1 106.42 13.8624 13.6297 3.97467 
176 1 106.42 11.8934 13.8266 6.20548 
193 1 106.42 11.9939 15.5447 4.04489 
180 1 106.42 15.6615 13.3058 6.01977 
161 1 106.42 19.3883 11.8239 3.99914 
199 1 106.42 17.4599 15.6735 5.77705 
183 1 106.42 2.37133 15.7314 5.93328 
184 1 106.42 0.316069 17.6652 5.67191 
282 1 106.42 1.8569 17.6427 7.74127 
201 1 106.42 0.0432362 19.4913 7.75113 
185 1 106.42 4.1266 15.9645 4.04574 
188 1 106.42 4.32664 17.6165 6.0191 
187 1 106.42 6.43167 15.7314 5.81257 
192 1 106.42 7.73934 17.9113 5.78093 
190 1 106.42 10.065 17.3858 3.97038 
290 1 106.42 9.73935 17.8853 7.56624 
115 1 106.42 13.7421 19.6983 5.87984 
195 1 106.42 14.0032 15.7159 5.92001 
194 1 106.42 13.7283 17.6111 4.0306 
196 1 106.42 11.8343 17.549 6.08722 
117 1 106.42 15.7134 19.3506 4.00673 
200 1 106.42 15.7481 17.5818 5.88141 
198 1 106.42 17.7974 17.6826 4.01562 
298 1 106.42 17.7506 17.6424 7.6504 
281 1 106.42 19.544 15.805 7.69059 
204 1 106.42 0.189336 2.07345 9.72541 
208 1 106.42 3.59351 2.23916 9.53679 
305 1 106.42 3.90554 0.090789 11.6091 
229 1 106.42 7.7699 3.88268 8.0424 
206 1 106.42 5.7948 2.04616 8.01207 
306 1 106.42 5.71878 1.64973 11.5755 
227 1 106.42 5.76099 3.7882 9.90382 
209 1 106.42 7.7948 0.246823 7.94045 
212 1 106.42 7.92179 1.92726 10.1026 
216 1 106.42 11.6872 1.65331 9.88529 
333 1 106.42 11.5727 3.77421 11.7793 
233 1 106.42 11.6282 3.63778 7.86297 
337 1 106.42 15.4606 3.72372 11.6246 
215 1 106.42 13.8719 0.244765 9.79955 
220 1 106.42 15.6027 2.03377 9.86001 
235 1 106.42 13.3843 3.66369 9.79882 
217 1 106.42 15.72 0.143021 8.056 
218 1 106.42 17.7611 2.00553 7.87662 
219 1 106.42 17.5936 0.278124 9.75255 
317 1 106.42 15.8287 0.23543 11.6247 
318 1 106.42 17.9827 2.1601 11.5864 
223 1 106.42 1.95925 4.0938 9.51879 
322 1 106.42 1.84885 5.5483 11.6965 
224 1 106.42 0.0547578 5.99222 9.50603 
329 1 106.42 7.72138 4.13481 11.883 
228 1 106.42 4.09481 5.97675 9.77981 
232 1 106.42 7.82666 5.98175 9.80329 
349 1 106.42 7.87449 7.61976 11.8946 
326 1 106.42 5.67781 5.99411 11.5928 
253 1 106.42 11.6708 7.75661 7.84411 
231 1 106.42 9.61851 4.01542 9.74537 
251 1 106.42 9.7569 7.68597 9.80215 
236 1 106.42 11.6819 5.68732 9.82397 
234 1 106.42 13.7275 5.50718 8.02317 
240 1 106.42 15.6535 5.87687 9.84273 
255 1 106.42 13.4535 7.76021 9.8443 
257 1 106.42 15.2683 7.79957 7.82939 
357 1 106.42 15.4616 7.63407 11.601 
321 1 106.42 19.6322 4.05384 11.6736 
239 1 106.42 17.6474 4.33713 9.84815 
221 1 106.42 19.3155 3.96801 7.83093 
259 1 106.42 17.4585 7.60417 9.60131 
245 1 106.42 3.80213 8.03183 8.13932 
242 1 106.42 2.10249 9.86322 8.07051 
243 1 106.42 1.74838 7.91195 10.1058 
345 1 106.42 3.95496 7.99615 11.5302 
263 1 106.42 1.75656 11.7601 10.0893 
342 1 106.42 2.10447 10.0102 11.7472 
269 1 106.42 7.8614 11.857 7.93537 
247 1 106.42 5.99108 7.99042 9.88028 
248 1 106.42 4.07894 10.0841 9.80274 
252 1 106.42 7.68904 9.8181 9.98406 
250 1 106.42 9.3611 9.82971 8.05454 
256 1 106.42 11.3773 9.75271 9.71888 
350 1 106.42 9.68974 10.0589 11.7411 
254 1 106.42 13.4148 9.7371 7.99383 
277 1 106.42 15.6651 11.657 8.13004 
354 1 106.42 13.7623 9.59675 11.7389 
241 1 106.42 19.7265 8.19191 8.13828 
258 1 106.42 17.5982 9.70651 7.93451 
244 1 106.42 19.5566 9.87516 10.0431 
260 1 106.42 15.7074 9.61827 9.7486 
279 1 106.42 17.6495 11.5792 9.50926 
358 1 106.42 17.5142 9.50943 11.7863 
377 1 106.42 15.7368 11.7046 11.5603 
262 1 106.42 1.85427 13.8675 8.20074 
268 1 106.42 3.94823 13.6525 10.1501 
362 1 106.42 1.79283 14.0754 11.7005 
265 1 106.42 3.89813 11.8857 7.86794 
267 1 106.42 5.89033 11.8875 9.80067 
287 1 106.42 5.97637 15.5083 9.91864 
385 1 106.42 3.93868 15.5965 11.6712 
369 1 106.42 7.61161 11.7837 11.7533 
270 1 106.42 9.45612 13.7693 7.88576 
273 1 106.42 11.7206 12.1172 7.98453 
272 1 106.42 7.90772 13.8919 9.7816 
271 1 106.42 9.92449 11.7916 9.90199 
276 1 106.42 11.5635 14.1618 9.89145 
274 1 106.42 13.7595 13.928 7.99554 
275 1 106.42 13.634 12.1085 9.77665 
374 1 106.42 13.5778 13.7847 11.5453 
264 1 106.42 19.1337 13.7113 9.99571 
280 1 106.42 15.9337 13.58 9.65295 
278 1 106.42 17.6111 13.8463 7.85677 
397 1 106.42 15.7056 15.4769 11.6955 
205 1 106.42 3.81731 19.542 8.07899 
203 1 106.42 1.81149 19.552 9.92816 
283 1 106.42 2.1156 15.9071 9.54788 
288 1 106.42 3.99272 17.485 9.69397 
382 1 106.42 2.08181 17.5698 11.7253 
207 1 106.42 5.75229 19.5302 9.75321 
286 1 106.42 6.27058 17.6167 8.02788 
386 1 106.42 5.65328 17.6593 11.8242 
211 1 106.42 9.69773 19.6673 9.76966 
291 1 106.42 9.79851 15.8809 9.92367 
293 1 106.42 11.4765 15.8548 7.90346 
292 1 106.42 7.86633 17.7347 9.97396 
289 1 106.42 8.02714 15.7742 7.81854 
390 1 106.42 10.0467 17.578 11.5091 
294 1 106.42 13.6357 17.8457 8.01816 
295 1 106.42 13.6096 15.8572 9.89743 
296 1 106.42 11.8144 17.9914 9.8712 
394 1 106.42 14.0197 18.0889 11.458 
300 1 106.42 15.6054 17.8787 9.5298 
297 1 106.42 15.736 15.8248 7.93715 
381 1 106.42 19.5379 15.9155 11.8611 
299 1 106.42 17.5951 16.0709 9.84697 
284 1 106.42 19.6527 17.5585 9.69595 
301 1 106.42 19.5057 19.7162 11.7577 
398 1 106.42 17.5604 17.7925 11.7328 
302 1 106.42 1.91378 1.89365 11.8594 
308 1 106.42 3.7808 1.74996 13.9017 
325 1 106.42 3.77586 3.85613 11.8684 
323 1 106.42 1.82377 3.69643 13.7104 
402 1 106.42 1.75069 1.79308 15.5732 
312 1 106.42 7.71712 1.97316 13.7795 
327 1 106.42 5.69596 3.67966 13.6756 
409 1 106.42 7.70388 0.191588 15.6594 
310 1 106.42 9.71394 1.78327 11.8866 
316 1 106.42 11.8472 1.94262 13.8294 
314 1 106.42 13.6401 1.98802 11.9524 
335 1 106.42 13.7059 3.95094 13.812 
313 1 106.42 11.8501 0.101476 11.8123 
320 1 106.42 15.5894 1.75128 13.7324 
413 1 106.42 11.8145 0.0354513 15.5522 
304 1 106.42 19.3234 2.08847 13.8101 
319 1 106.42 17.5488 0.0929738 13.7489 
418 1 106.42 17.7051 2.22621 15.5065 
421 1 106.42 0.207918 4.09105 15.6015 
343 1 106.42 2.09304 7.93777 13.2497 
328 1 106.42 3.90177 5.61154 13.702 
422 1 106.42 2.25003 6.00934 15.5015 
425 1 106.42 3.87733 4.11476 15.6011 
426 1 106.42 5.83658 5.78465 15.5157 
332 1 106.42 7.64605 5.85833 13.7933 
445 1 106.42 4.16031 7.87189 15.5064 
331 1 106.42 9.57341 4.08035 13.6568 
330 1 106.42 9.77031 5.69166 11.8325 
449 1 106.42 7.87807 7.83302 15.7532 
351 1 106.42 9.81144 7.84367 13.7475 
336 1 106.42 11.4597 5.86835 13.9318 
433 1 106.42 11.6859 3.86062 15.6832 
334 1 106.42 13.5248 5.77424 11.9231 
340 1 106.42 15.4393 6.03032 13.9035 
355 1 106.42 13.5713 7.70821 13.613 
434 1 106.42 13.6402 5.80037 15.7072 
437 1 106.42 15.5572 3.87008 15.6149 
338 1 106.42 17.5514 5.73241 11.8961 
339 1 106.42 17.4112 4.11506 13.7774 
324 1 106.42 19.5766 5.85023 13.6128 
341 1 106.42 19.4505 7.76412 11.6612 
438 1 106.42 17.8595 5.77119 15.5282 
359 1 106.42 17.3448 7.90666 13.7591 
441 1 106.42 19.5265 7.68396 15.732 
344 1 106.42 0.201109 9.66363 13.683 
348 1 106.42 4.06294 10.0828 14.0239 
347 1 106.42 5.9175 7.831 13.7458 
346 1 106.42 5.83763 9.64757 11.8713 
367 1 106.42 6.06745 11.5395 13.9447 
353 1 106.42 11.5769 7.80592 11.8605 
352 1 106.42 7.84877 9.59213 13.8319 
371 1 106.42 9.81099 11.7737 13.5722 
356 1 106.42 11.7265 9.56355 13.8936 
450 1 106.42 9.93173 9.50435 15.6466 
373 1 106.42 11.8791 11.5472 11.7286 
375 1 106.42 13.9925 11.5539 13.8264 
473 1 106.42 12.0876 11.4706 15.6918 
360 1 106.42 15.5721 9.56055 13.5364 
361 1 106.42 19.1994 11.6521 11.8144 
379 1 106.42 17.629 11.5235 13.7538 
477 1 106.42 15.775 11.5729 15.6282 
458 1 106.42 17.6991 9.8029 15.4485 
363 1 106.42 1.69715 12.037 13.5105 
364 1 106.42 0.165093 13.9366 13.5551 
461 1 106.42 0.027907 11.8219 15.3357 
368 1 106.42 3.9056 13.6971 13.929 
462 1 106.42 2.07637 13.9567 15.7308 
365 1 106.42 3.96445 11.7915 11.9366 
366 1 106.42 6.13337 13.8638 11.988 
489 1 106.42 7.71939 15.4461 15.5263 
370 1 106.42 9.99504 13.6931 11.8993 
372 1 106.42 7.90396 13.6364 13.7801 
470 1 106.42 9.95906 13.7995 15.4936 
469 1 106.42 8.095 11.7016 15.517 
376 1 106.42 12.116 13.7379 13.7382 
474 1 106.42 13.7952 13.8807 15.6315 
378 1 106.42 17.7304 13.5977 12.0839 
380 1 106.42 15.5951 13.4231 13.7757 
399 1 106.42 17.5151 15.5393 13.7498 
478 1 106.42 17.8114 13.5234 15.5568 
383 1 106.42 2.11038 15.9063 13.7287 
303 1 106.42 1.86911 19.4638 13.4796 
388 1 106.42 3.79109 17.9096 13.9844 
309 1 106.42 7.74169 19.46 11.8851 
307 1 106.42 5.68663 19.5497 13.6318 
387 1 106.42 5.7011 15.7221 13.6646 
392 1 106.42 7.9652 17.8162 14.0058 
389 1 106.42 7.77561 15.9334 11.8257 
311 1 106.42 9.71201 19.6562 13.7669 
391 1 106.42 9.98512 15.9468 13.5684 
396 1 106.42 11.8058 17.9222 13.7503 
490 1 106.42 9.91045 17.6627 15.6328 
393 1 106.42 12.049 15.834 11.9743 
315 1 106.42 14.0767 19.5376 13.5734 
395 1 106.42 13.9621 15.9246 13.634 
494 1 106.42 13.8532 17.7416 15.5278 
481 1 106.42 19.4984 15.8408 15.5048 
384 1 106.42 19.528 17.6762 13.6393 
400 1 106.42 15.838 17.7245 13.5308 
497 1 106.42 15.9541 15.7136 15.5531 
401 1 106.42 19.5126 19.4844 15.3079 
5 1 106.42 3.71802 0.295933 19.2885 
2 1 106.42 1.57744 2.1339 19.4625 
408 1 106.42 3.73177 2.13674 17.5166 
405 1 106.42 3.9572 0.0866026 15.8579 
6 1 106.42 5.84344 1.99542 19.5109 
406 1 106.42 5.8952 1.94753 15.7973 
429 1 106.42 7.67663 3.85447 15.8216 
427 1 106.42 5.71419 4.01967 17.7164 
29 1 106.42 7.81064 3.85013 19.4881 
412 1 106.42 7.7529 1.86178 17.7485 
10 1 106.42 9.86973 1.78321 19.6379 
410 1 106.42 9.7238 1.92378 15.6943 
431 1 106.42 10.0921 3.87293 17.8548 
411 1 106.42 9.98086 0.125826 17.5289 
416 1 106.42 11.8606 1.91515 17.5559 
414 1 106.42 13.712 1.81235 15.8046 
420 1 106.42 15.6551 2.08473 17.6262 
415 1 106.42 13.5559 0.04699 17.7931 
404 1 106.42 19.5798 1.86426 17.5505 
419 1 106.42 17.3748 0.0325141 17.9639 
439 1 106.42 17.6481 3.70971 17.7666 
41 1 106.42 0.268231 7.85744 19.6331 
423 1 106.42 1.92813 3.78196 17.6149 
428 1 106.42 3.81338 5.63203 17.6767 
424 1 106.42 0.163074 5.95387 17.5236 
447 1 106.42 6.10623 7.84379 17.8097 
432 1 106.42 7.58353 6.02786 17.5819 
30 1 106.42 9.80482 5.80952 19.5095 
430 1 106.42 9.59761 5.66597 15.9763 
451 1 106.42 9.64103 7.5938 17.86 
53 1 106.42 11.8995 7.79284 19.4766 
457 1 106.42 15.7511 7.70864 15.8178 
436 1 106.42 11.8829 5.86137 17.8221 
453 1 106.42 11.8649 7.79762 16.0871 
435 1 106.42 13.647 3.96201 17.768 
455 1 106.42 14.2881 7.81069 17.945 
21 1 106.42 19.5431 4.08188 19.5921 
440 1 106.42 15.8263 5.5091 17.6255 
459 1 106.42 17.95 7.59386 17.8569 
442 1 106.42 2.0899 9.67002 15.8001 
42 1 106.42 2.2536 9.75824 19.4955 
443 1 106.42 1.97497 7.8714 17.5638 
444 1 106.42 0.078945 10.1385 17.3215 
463 1 106.42 2.15317 11.4874 17.5568 
45 1 106.42 3.96867 7.86066 19.6603 
448 1 106.42 4.29174 9.3731 17.7979 
446 1 106.42 6.03352 9.64658 15.8969 
467 1 106.42 5.9942 11.752 17.7634 
69 1 106.42 7.97537 11.6904 19.577 
452 1 106.42 8.0111 9.82305 17.4921 
501 2 1.01 9.72592 10.4433 18.2924 
471 1 106.42 9.81762 11.7806 17.483 
456 1 106.42 11.6209 9.77094 17.9045 
454 1 106.42 13.8052 9.73474 16.0523 
54 1 106.42 13.9574 9.88574 19.1895 
73 1 106.42 12.0643 11.7717 19.6262 
57 1 106.42 16.0666 7.95368 19.6256 
460 1 106.42 16.2168 9.544 17.6941 
479 1 106.42 17.6491 11.5814 17.5834 
61 1 106.42 -0.00273126 11.8801 19.6198 
465 1 106.42 4.03866 11.8362 16.0413 
483 1 106.42 1.56858 15.6144 17.8186 
464 1 106.42 -0.0661089 13.7097 17.5527 
468 1 106.42 3.91345 13.9812 17.7338 
65 1 106.42 3.8436 11.9498 19.4785 
66 1 106.42 5.90357 13.9288 19.5061 
466 1 106.42 5.73569 13.6123 15.7203 
472 1 106.42 7.81763 13.5813 17.4017 
487 1 106.42 5.89933 15.5501 17.6341 
70 1 106.42 9.82073 13.5764 19.5312 
491 1 106.42 9.81785 15.5994 17.4707 
476 1 106.42 11.7259 13.6521 17.4888 
89 1 106.42 7.89285 15.5299 19.4333 
74 1 106.42 13.6905 13.8538 19.5374 
475 1 106.42 13.9343 12.0597 17.607 
495 1 106.42 14.0887 15.5709 17.5753 
480 1 106.42 16.1995 13.9208 17.5421 
77 1 106.42 15.8215 11.7789 19.6154 
403 1 106.42 1.72412 19.4078 17.5692 
85 1 106.42 3.85671 15.9212 19.5328 
482 1 106.42 1.98127 17.5786 15.9038 
407 1 106.42 5.98018 19.3977 17.9462 
86 1 106.42 6.05953 17.4677 19.401 
486 1 106.42 5.97464 17.8148 15.8822 
485 1 106.42 4.33353 15.8453 15.9106 
488 1 106.42 3.8829 17.6491 17.7176 
492 1 106.42 8.17674 17.715 17.6435 
97 1 106.42 15.68 15.8714 19.5448 
493 1 106.42 11.9115 15.7964 15.9022 
496 1 106.42 11.9081 17.4123 17.7729 
94 1 106.42 13.5381 17.651 19.7733 
500 1 106.42 15.5402 17.6784 17.5859 
484 1 106.42 19.4764 17.6722 17.7495 
417 1 106.42 15.7506 19.6706 15.7455 
498 1 106.42 17.5865 17.8061 15.9154 
499 1 106.42 17.521 15.8295 17.653 
