ITEM: TIMESTEP
94800
ITEM: NUMBER OF ATOMS
501
ITEM: BOX BOUNDS pp pp pp
0.0000000000000000e+00 1.9629018200000001e+01
0.0000000000000000e+00 1.9629018200000001e+01
0.0000000000000000e+00 1.9629018200000001e+01
ITEM: ATOMS id type mass x y z 
3 1 106.42 2.17003 -0.0545856 1.67321 
23 1 106.42 2.00548 3.81734 1.91892 
102 1 106.42 1.82871 1.64628 3.73342 
8 1 106.42 3.94549 1.89661 1.82611 
106 1 106.42 5.79892 2.08123 3.88829 
12 1 106.42 7.60694 1.83897 1.87456 
16 1 106.42 11.9569 1.89934 2.11854 
31 1 106.42 9.69918 4.04339 2.16276 
109 1 106.42 7.63497 0.156489 3.68969 
110 1 106.42 9.67522 1.82318 3.90613 
10 1 106.42 9.83577 2.42401 0.254623 
33 1 106.42 12.0746 3.83423 -0.135509 
14 1 106.42 13.8305 1.85816 -0.261816 
35 1 106.42 13.8781 3.87596 2.2051 
15 1 106.42 13.7411 -0.0628156 1.97746 
20 1 106.42 15.8667 1.81286 2.16069 
4 1 106.42 19.5461 2.06915 2.02242 
18 1 106.42 17.6498 1.8283 0.088995 
122 1 106.42 2.21021 5.96294 4.02569 
24 1 106.42 0.437222 5.91839 2.04705 
45 1 106.42 4.04123 7.83817 0.155521 
125 1 106.42 3.7791 3.84776 3.93912 
25 1 106.42 3.89041 3.87194 -0.174492 
28 1 106.42 3.84008 5.59341 1.97918 
27 1 106.42 5.89878 3.78507 2.07358 
26 1 106.42 6.05001 5.82696 0.176651 
47 1 106.42 5.82013 7.98408 2.02367 
32 1 106.42 7.81139 6.11289 2.18541 
36 1 106.42 11.8034 5.72299 1.90651 
51 1 106.42 10.0195 7.74381 2.13684 
134 1 106.42 13.491 5.97834 3.78094 
55 1 106.42 13.8294 7.82308 2.03753 
34 1 106.42 13.7792 5.98099 0.191285 
39 1 106.42 17.9626 4.035 2.00753 
40 1 106.42 15.5365 5.87333 2.08719 
59 1 106.42 17.8173 7.34009 1.87765 
43 1 106.42 1.99493 8.03281 2.05196 
48 1 106.42 3.82626 10.073 1.79382 
44 1 106.42 0.0132879 10.2941 2.01352 
141 1 106.42 0.275563 7.95766 3.80441 
41 1 106.42 0.0968154 7.84964 0.213902 
146 1 106.42 5.88811 9.88341 4.0623 
46 1 106.42 6.00584 9.8381 0.18498 
145 1 106.42 3.94492 8.18687 3.93992 
153 1 106.42 11.9949 7.98556 3.88863 
52 1 106.42 7.8774 9.45644 2.28017 
49 1 106.42 8.13378 7.93948 0.183615 
150 1 106.42 9.91623 10.1094 4.08482 
50 1 106.42 10.1182 9.86282 0.19993 
56 1 106.42 12.2192 9.79323 1.75075 
75 1 106.42 14.0563 11.8989 1.83772 
60 1 106.42 15.6247 9.81336 2.08282 
173 1 106.42 12.0248 11.7377 3.85086 
73 1 106.42 11.7582 11.8054 -0.0259765 
58 1 106.42 17.8211 9.69173 0.135018 
158 1 106.42 17.8285 9.7415 3.67767 
57 1 106.42 15.8307 7.75882 0.296739 
77 1 106.42 15.8268 11.4931 0.0225888 
63 1 106.42 1.81977 12.2996 1.79455 
162 1 106.42 2.06624 13.8256 3.91479 
165 1 106.42 3.72398 11.7644 3.65034 
68 1 106.42 3.85897 13.5104 1.72762 
67 1 106.42 5.93915 11.6355 2.16133 
169 1 106.42 7.94121 11.5947 3.9773 
166 1 106.42 5.63386 13.7022 3.69718 
66 1 106.42 6.07498 13.5736 0.154486 
71 1 106.42 9.74923 11.6797 2.21336 
72 1 106.42 7.93238 13.6025 2.30034 
91 1 106.42 10.0482 15.6296 2.01815 
69 1 106.42 8.07001 11.8106 0.300912 
70 1 106.42 9.96717 13.8299 -0.111553 
76 1 106.42 11.9317 13.7267 1.76669 
80 1 106.42 15.7263 13.8831 1.93265 
174 1 106.42 13.8283 13.6804 3.75227 
79 1 106.42 17.6235 11.9129 2.19521 
64 1 106.42 19.7113 14.0513 2.33396 
78 1 106.42 17.6966 13.9503 0.00186854 
61 1 106.42 19.639 11.9549 0.0143274 
83 1 106.42 2.30171 15.7108 1.89645 
181 1 106.42 0.349035 16.119 3.73547 
82 1 106.42 1.86974 17.736 -0.00886294 
182 1 106.42 2.02866 18.0771 4.04758 
84 1 106.42 0.0139109 17.591 1.69979 
81 1 106.42 0.127999 15.4232 -0.128142 
189 1 106.42 7.84771 15.6555 3.68202 
7 1 106.42 6.038 19.6338 1.57444 
88 1 106.42 3.81756 17.8925 1.94859 
87 1 106.42 6.1561 15.6651 1.838 
186 1 106.42 5.86326 17.7394 3.88879 
185 1 106.42 4.17453 15.7436 3.85671 
85 1 106.42 4.21115 15.5529 0.234578 
86 1 106.42 6.01516 17.5921 0.000823033 
92 1 106.42 8.17646 17.7033 1.53093 
11 1 106.42 9.79496 20.0647 1.87267 
90 1 106.42 10.0871 17.4672 -0.246052 
96 1 106.42 11.6812 17.7666 1.99286 
95 1 106.42 13.6584 15.6577 2.12985 
100 1 106.42 15.6347 17.6656 2.19851 
94 1 106.42 13.897 17.7292 0.075853 
19 1 106.42 17.9155 19.4909 1.99426 
99 1 106.42 17.7554 15.8207 1.82787 
98 1 106.42 17.6477 17.7784 0.0328152 
202 1 106.42 1.84731 1.93212 7.70062 
108 1 106.42 3.80389 2.01018 5.63506 
104 1 106.42 0.227582 1.92833 5.57846 
129 1 106.42 7.81465 4.04817 4.18863 
112 1 106.42 7.85884 1.939 5.80968 
127 1 106.42 5.72448 3.85384 6.00601 
107 1 106.42 5.83821 0.300165 6.20971 
133 1 106.42 11.5328 3.85205 4.11758 
116 1 106.42 11.7882 1.72599 5.77628 
131 1 106.42 9.86262 3.59576 6.11374 
233 1 106.42 11.8323 3.69533 7.6221 
114 1 106.42 13.7429 1.8852 4.06033 
214 1 106.42 13.9341 2.15953 7.7273 
115 1 106.42 13.9188 0.0314004 5.87436 
118 1 106.42 17.5954 1.91401 4.04206 
101 1 106.42 19.4537 0.116799 3.91289 
120 1 106.42 15.582 2.19409 5.78742 
119 1 106.42 17.637 -0.0484982 6.04645 
139 1 106.42 17.8526 3.83661 5.8098 
121 1 106.42 0.220697 4.11931 4.14555 
123 1 106.42 2.23311 3.94367 5.91822 
124 1 106.42 -0.0132314 6.11391 5.69778 
222 1 106.42 2.06241 5.91023 7.83411 
128 1 106.42 3.84161 5.9442 6.1044 
126 1 106.42 5.96541 5.96603 4.02804 
132 1 106.42 7.8559 5.68857 6.01317 
147 1 106.42 5.7978 7.55623 6.1008 
149 1 106.42 7.75307 7.99974 4.32213 
130 1 106.42 9.65113 5.9495 4.08695 
136 1 106.42 11.71 5.72351 5.9329 
230 1 106.42 9.88364 5.83794 7.87556 
137 1 106.42 15.8624 4.16683 4.05413 
135 1 106.42 13.6984 4.06383 5.72575 
155 1 106.42 13.714 7.70416 6.16149 
257 1 106.42 15.9156 7.73542 7.78804 
157 1 106.42 15.8789 7.83073 3.86479 
138 1 106.42 17.7677 5.87246 3.90837 
140 1 106.42 15.5861 5.90261 6.00919 
238 1 106.42 17.7615 5.99761 7.7131 
237 1 106.42 15.6789 4.09023 7.73032 
221 1 106.42 19.7519 3.96401 7.51727 
142 1 106.42 1.79358 9.93345 3.80667 
143 1 106.42 2.186 7.8644 5.77216 
148 1 106.42 3.83222 9.80174 5.94796 
144 1 106.42 0.284207 9.89844 5.7792 
152 1 106.42 7.67927 9.97511 5.9757 
151 1 106.42 9.8044 7.91603 5.69314 
156 1 106.42 11.6468 10.1436 6.05406 
253 1 106.42 11.5627 7.96223 7.76758 
154 1 106.42 13.8102 9.67056 4.00202 
160 1 106.42 15.869 9.63979 5.76253 
254 1 106.42 13.8138 9.96022 7.6434 
177 1 106.42 15.7091 11.8578 4.08348 
159 1 106.42 17.9242 8.04856 5.6566 
179 1 106.42 17.6914 11.4648 5.83565 
163 1 106.42 1.99303 12.0559 5.75609 
164 1 106.42 0.195781 13.7964 5.54049 
261 1 106.42 -0.0694704 11.7345 7.97311 
183 1 106.42 2.09194 15.6549 5.78405 
265 1 106.42 3.92818 11.6907 7.89619 
167 1 106.42 5.61293 11.8399 5.9883 
168 1 106.42 4.10351 13.8128 5.56564 
172 1 106.42 8.05579 13.6681 5.7313 
285 1 106.42 4.12211 15.7608 7.56 
187 1 106.42 6.20562 15.4759 5.73515 
171 1 106.42 9.95427 11.9097 5.76728 
170 1 106.42 10.0158 13.7488 3.71235 
191 1 106.42 9.53576 15.773 5.7465 
176 1 106.42 11.7682 13.8687 5.82366 
289 1 106.42 7.83571 15.5023 8.00348 
197 1 106.42 15.8654 15.7573 3.91736 
175 1 106.42 13.6747 12.1162 6.10154 
193 1 106.42 11.8449 15.7091 3.90788 
180 1 106.42 15.7985 13.8559 6.03725 
195 1 106.42 13.8119 15.511 6.16426 
178 1 106.42 17.4772 13.6828 4.13275 
161 1 106.42 19.5943 11.8521 3.94419 
278 1 106.42 17.9293 13.5253 7.48424 
103 1 106.42 2.11384 19.5509 6.004 
184 1 106.42 0.135188 17.4913 6.0355 
282 1 106.42 2.43414 17.532 7.76742 
201 1 106.42 0.0166463 19.5992 7.57846 
281 1 106.42 0.434471 15.4959 7.80279 
105 1 106.42 4.18998 19.5062 3.96942 
188 1 106.42 4.32326 17.6588 5.99105 
192 1 106.42 7.79153 17.9615 5.70847 
286 1 106.42 6.19316 17.5941 7.72274 
113 1 106.42 11.908 19.3258 4.26095 
111 1 106.42 9.5367 19.6432 5.73582 
213 1 106.42 11.5661 19.3875 7.53298 
190 1 106.42 9.6101 17.6236 3.88726 
290 1 106.42 9.41112 17.6067 7.65369 
196 1 106.42 11.5647 17.3496 5.76817 
194 1 106.42 13.8681 17.6249 4.13301 
294 1 106.42 13.6443 17.5637 7.61745 
199 1 106.42 17.8787 15.9721 5.98835 
117 1 106.42 15.8784 19.6581 3.9738 
200 1 106.42 15.7005 17.7884 6.09428 
198 1 106.42 17.8385 17.6065 3.90639 
298 1 106.42 17.7929 17.6103 7.99197 
204 1 106.42 -0.131549 2.03804 9.59903 
208 1 106.42 3.5719 1.56728 9.92074 
302 1 106.42 1.68502 2.06331 11.5684 
229 1 106.42 7.98216 3.85856 7.93488 
206 1 106.42 5.74981 2.09911 7.967 
306 1 106.42 5.55685 2.01751 11.7151 
227 1 106.42 5.97969 3.97047 9.8733 
209 1 106.42 7.8453 0.1656 7.95979 
210 1 106.42 9.61834 1.84818 7.94449 
212 1 106.42 7.61212 2.03888 10.1093 
216 1 106.42 11.6258 1.91358 9.70022 
231 1 106.42 9.84261 3.54461 10.0942 
211 1 106.42 9.42761 -0.0419144 9.89713 
215 1 106.42 13.631 0.0179683 9.6912 
220 1 106.42 15.6646 2.25315 9.63153 
235 1 106.42 13.4817 3.69637 9.90277 
217 1 106.42 15.6597 0.0558519 7.88721 
218 1 106.42 17.7416 2.02299 7.85318 
219 1 106.42 17.9512 -0.247958 9.66914 
317 1 106.42 15.7429 0.0860266 11.6739 
318 1 106.42 17.2565 2.20279 11.542 
301 1 106.42 19.4525 0.103039 11.6812 
223 1 106.42 1.75465 4.12232 9.65327 
322 1 106.42 1.91998 6.14006 11.7838 
321 1 106.42 -0.295452 4.17681 11.5129 
245 1 106.42 4.14885 7.71902 7.92921 
325 1 106.42 3.66374 3.79658 11.3097 
225 1 106.42 3.92946 3.89631 8.02177 
226 1 106.42 5.95199 5.82249 8.18375 
228 1 106.42 3.79136 5.79704 9.98947 
249 1 106.42 7.76305 7.7429 7.82886 
232 1 106.42 7.91185 5.77432 9.94979 
236 1 106.42 11.5939 5.64123 9.65427 
330 1 106.42 9.70237 5.82361 11.6987 
353 1 106.42 11.5566 7.6703 11.5589 
234 1 106.42 13.3475 5.75874 7.75064 
240 1 106.42 15.2107 5.57042 9.7331 
255 1 106.42 13.6945 7.57894 9.50043 
357 1 106.42 15.6232 7.80683 11.7017 
224 1 106.42 19.3402 5.90972 9.95619 
239 1 106.42 17.5344 3.99444 9.63302 
259 1 106.42 17.5341 7.89333 9.79256 
341 1 106.42 19.5293 7.80068 11.5544 
242 1 106.42 2.00217 10.2 8.04855 
243 1 106.42 2.30117 7.83746 9.87899 
342 1 106.42 1.7824 9.75864 11.7245 
241 1 106.42 0.229387 7.63137 8.0167 
246 1 106.42 5.85924 9.72717 7.87508 
345 1 106.42 4.02123 8.00439 12.0973 
247 1 106.42 6.06468 7.76447 10.0243 
248 1 106.42 3.8157 9.77518 9.85023 
252 1 106.42 7.96411 9.78256 9.96916 
369 1 106.42 7.79861 11.7072 11.8132 
251 1 106.42 9.75611 8.08233 9.61669 
250 1 106.42 9.79173 10.0345 7.66914 
256 1 106.42 12.0695 9.72955 9.81725 
277 1 106.42 15.6714 11.6267 7.59329 
354 1 106.42 13.5753 9.39938 11.775 
260 1 106.42 15.4504 9.89124 9.85989 
373 1 106.42 11.9003 11.8178 11.6136 
258 1 106.42 17.7338 9.55283 7.74161 
244 1 106.42 19.6178 9.85486 9.76625 
279 1 106.42 17.5926 11.7506 10.0633 
358 1 106.42 17.4971 9.8221 11.817 
263 1 106.42 1.92372 11.9951 10.2404 
262 1 106.42 1.95978 13.4731 7.89529 
362 1 106.42 1.89191 14.0203 11.714 
266 1 106.42 5.92146 13.7921 7.82868 
269 1 106.42 7.71774 11.8454 8.06521 
268 1 106.42 3.93173 13.7307 9.55216 
267 1 106.42 5.88916 11.815 9.84122 
287 1 106.42 5.85409 15.6293 9.53956 
270 1 106.42 10.0089 13.7725 7.92843 
273 1 106.42 11.6975 11.7903 8.10033 
272 1 106.42 7.67622 13.7473 10.2268 
271 1 106.42 9.61517 11.8781 9.91423 
276 1 106.42 11.7732 13.7078 9.99836 
370 1 106.42 9.89786 13.8991 11.7416 
377 1 106.42 15.4228 11.8149 11.8056 
274 1 106.42 13.5929 14.0223 8.23752 
275 1 106.42 13.6937 11.5846 9.8297 
374 1 106.42 13.7899 13.8035 11.7436 
264 1 106.42 19.5812 13.8528 9.78071 
280 1 106.42 15.7975 13.9313 9.83846 
305 1 106.42 3.84308 19.2321 11.548 
385 1 106.42 3.90698 15.8337 11.842 
205 1 106.42 3.95461 19.784 7.92304 
203 1 106.42 1.75196 19.4691 9.61568 
283 1 106.42 2.13776 15.6368 9.65729 
284 1 106.42 0.149118 17.5638 9.82459 
288 1 106.42 4.29968 17.5404 9.57763 
207 1 106.42 5.90309 19.8206 9.86394 
292 1 106.42 7.65474 17.6103 9.907 
291 1 106.42 9.54742 15.7648 9.87153 
293 1 106.42 11.5867 15.7505 7.77807 
390 1 106.42 9.55312 17.9202 12.0544 
296 1 106.42 11.3315 17.6512 9.46516 
397 1 106.42 15.6432 15.9436 11.6938 
295 1 106.42 13.489 16.0573 9.80837 
394 1 106.42 13.5805 17.6747 11.7799 
297 1 106.42 15.7327 15.6986 8.05199 
300 1 106.42 15.9241 17.722 9.86822 
299 1 106.42 17.7473 15.5224 9.75313 
398 1 106.42 17.7232 17.7357 11.6857 
308 1 106.42 3.78859 1.76349 13.6019 
323 1 106.42 1.92938 3.94533 13.6926 
402 1 106.42 1.85465 1.87984 15.6334 
303 1 106.42 1.74607 0.308792 13.6727 
312 1 106.42 7.54424 1.81765 13.789 
327 1 106.42 5.39062 3.84831 13.7155 
333 1 106.42 11.5996 3.87532 12.0167 
310 1 106.42 9.67612 1.90622 11.9366 
313 1 106.42 11.5577 -0.0640784 11.7244 
331 1 106.42 9.58494 3.82116 13.7521 
433 1 106.42 11.8507 3.95338 15.5692 
311 1 106.42 9.83179 -0.0944988 13.9977 
410 1 106.42 9.85848 2.04639 15.6037 
316 1 106.42 11.7113 1.91608 13.6235 
314 1 106.42 13.8412 1.86874 11.7013 
320 1 106.42 15.6296 2.06272 13.6318 
437 1 106.42 15.3698 3.98702 15.8074 
414 1 106.42 13.5726 1.83339 15.475 
304 1 106.42 19.1866 2.43094 13.3267 
319 1 106.42 17.6728 0.251382 13.5984 
418 1 106.42 17.6834 1.7084 15.7955 
422 1 106.42 2.07615 6.03445 15.759 
425 1 106.42 3.70151 3.73879 15.604 
324 1 106.42 0.130453 5.93266 13.8498 
329 1 106.42 7.54594 3.75166 11.9682 
326 1 106.42 5.97571 5.86742 11.9044 
328 1 106.42 3.73991 5.96872 13.4545 
332 1 106.42 7.84236 5.79498 13.9351 
347 1 106.42 5.9187 7.77001 13.7 
349 1 106.42 8.10322 7.83044 11.6413 
336 1 106.42 11.4176 5.86312 13.9679 
337 1 106.42 15.6343 4.27557 11.8988 
335 1 106.42 13.523 4.14944 13.7676 
334 1 106.42 13.3565 5.97566 11.5639 
340 1 106.42 15.5513 6.04776 13.7568 
355 1 106.42 13.3614 7.70679 13.9666 
338 1 106.42 17.6504 5.94091 11.9002 
339 1 106.42 17.3817 3.94403 13.891 
343 1 106.42 1.90404 7.75308 13.7616 
344 1 106.42 -0.00903708 9.91014 13.7936 
445 1 106.42 3.78946 7.94585 15.6706 
348 1 106.42 3.62257 10.1809 13.8402 
346 1 106.42 5.7676 9.86338 11.9521 
367 1 106.42 5.92706 12.038 13.7057 
352 1 106.42 7.83628 9.74212 13.4774 
350 1 106.42 10.0576 9.6483 11.7849 
351 1 106.42 9.8266 7.91295 14.0105 
469 1 106.42 7.95432 11.6253 15.4742 
356 1 106.42 11.8668 9.74418 13.7142 
375 1 106.42 13.468 11.6217 13.7436 
473 1 106.42 11.4591 12.0412 15.7059 
360 1 106.42 15.2876 9.57414 14.0254 
359 1 106.42 18.0652 7.73583 13.7489 
361 1 106.42 19.5402 11.7499 11.9251 
379 1 106.42 17.129 11.604 13.599 
458 1 106.42 17.6605 9.71695 15.6951 
461 1 106.42 19.5086 11.7645 15.6608 
363 1 106.42 1.90792 12.0465 13.5713 
368 1 106.42 3.86407 13.5704 13.789 
365 1 106.42 4.03167 11.6821 11.7237 
366 1 106.42 5.47301 13.8247 11.7612 
466 1 106.42 6.29852 13.96 15.4841 
371 1 106.42 9.98262 11.8851 13.654 
489 1 106.42 7.93498 15.9888 15.7254 
372 1 106.42 7.92196 13.7489 13.5947 
470 1 106.42 10.0327 13.9607 15.4594 
376 1 106.42 11.8853 13.7426 13.7489 
380 1 106.42 15.3836 13.7594 13.6618 
364 1 106.42 19.4621 13.905 13.8358 
378 1 106.42 17.3495 13.8728 11.8456 
399 1 106.42 17.3526 15.8776 13.7288 
478 1 106.42 17.529 13.7995 15.6523 
382 1 106.42 1.71009 17.6936 11.8258 
383 1 106.42 1.86299 15.5332 13.6392 
388 1 106.42 3.88802 17.6587 13.6524 
482 1 106.42 1.79389 17.8953 15.2565 
386 1 106.42 5.99214 17.4984 11.9656 
309 1 106.42 7.79045 19.6452 11.9513 
307 1 106.42 5.78348 19.6223 13.9952 
387 1 106.42 5.75054 15.6914 13.9289 
389 1 106.42 7.76716 15.7003 11.9584 
485 1 106.42 3.36325 15.6185 15.5142 
392 1 106.42 7.76424 17.5547 13.8534 
391 1 106.42 9.69304 15.7062 13.6433 
490 1 106.42 9.96086 17.5043 15.7374 
413 1 106.42 11.8356 19.4354 15.6016 
396 1 106.42 11.849 17.4904 13.7601 
393 1 106.42 11.6516 15.7691 11.8489 
315 1 106.42 13.5337 19.6688 13.5784 
395 1 106.42 13.7819 15.6367 13.712 
494 1 106.42 13.8518 17.7486 15.7832 
497 1 106.42 15.7225 15.7917 15.8545 
381 1 106.42 19.5389 15.7954 11.6604 
481 1 106.42 19.6125 15.7816 16.0068 
384 1 106.42 19.4057 17.7561 13.7279 
400 1 106.42 15.6881 17.8183 13.7084 
401 1 106.42 19.6656 19.7703 15.6983 
5 1 106.42 3.99239 0.0224145 19.3289 
2 1 106.42 2.11508 1.96662 19.6145 
408 1 106.42 4.08721 1.95303 17.5708 
405 1 106.42 3.90033 -0.238028 15.7952 
423 1 106.42 2.01101 3.88494 17.6657 
409 1 106.42 7.90135 -0.229941 15.9436 
6 1 106.42 5.99042 2.07904 19.5787 
406 1 106.42 5.80823 1.94193 15.677 
429 1 106.42 7.86748 3.91131 15.6367 
29 1 106.42 7.84698 4.08329 19.6812 
412 1 106.42 8.0728 2.05451 17.5934 
9 1 106.42 8.3373 0.0543767 19.36 
431 1 106.42 9.85141 3.80943 17.4712 
37 1 106.42 15.7376 4.27615 19.6494 
17 1 106.42 15.7187 0.104288 19.7176 
416 1 106.42 11.7354 1.79954 17.4624 
435 1 106.42 13.7354 3.57269 17.5305 
417 1 106.42 15.6876 -0.0173396 15.7066 
1 1 106.42 19.735 0.0218505 19.5534 
420 1 106.42 15.7343 1.77827 17.5784 
404 1 106.42 19.491 1.90631 17.5761 
439 1 106.42 17.7018 3.89367 17.5525 
22 1 106.42 2.14027 6.06198 19.6119 
421 1 106.42 -0.199924 3.94794 15.7149 
441 1 106.42 0.127419 7.71572 15.7963 
424 1 106.42 0.19634 5.72693 17.9243 
443 1 106.42 2.05794 7.90875 17.75 
426 1 106.42 5.69626 5.86656 15.8055 
449 1 106.42 7.72711 7.81122 15.825 
427 1 106.42 5.81885 3.77803 17.6373 
428 1 106.42 4.19548 6.33724 17.731 
432 1 106.42 8.0417 5.59124 17.7081 
30 1 106.42 9.6643 5.71194 19.8566 
430 1 106.42 9.82402 6.03104 15.8463 
451 1 106.42 9.95002 7.94352 17.9207 
434 1 106.42 13.6373 5.94889 15.7715 
53 1 106.42 11.8534 7.70752 19.8879 
436 1 106.42 11.8206 5.5786 17.7155 
455 1 106.42 13.6494 7.61196 17.8395 
38 1 106.42 17.8584 5.63262 19.6187 
438 1 106.42 17.5218 5.68926 15.9173 
457 1 106.42 15.93 7.71377 15.8238 
21 1 106.42 19.6742 3.6523 19.6894 
440 1 106.42 15.5017 5.86424 17.7103 
459 1 106.42 17.9436 7.86181 17.7549 
442 1 106.42 1.80055 9.57634 15.6358 
42 1 106.42 1.76181 9.86519 19.4498 
463 1 106.42 1.93447 11.8113 17.1191 
65 1 106.42 3.76716 11.5959 19.4464 
447 1 106.42 5.94827 7.9628 17.9242 
448 1 106.42 3.99713 9.93369 17.5798 
446 1 106.42 6.15364 9.87835 15.6419 
450 1 106.42 9.71181 9.89164 15.8168 
453 1 106.42 11.6692 7.89653 15.9091 
452 1 106.42 7.96053 9.85351 18.0641 
501 2 1.01 9.69992 10.0002 17.9867 
456 1 106.42 11.7608 10.0301 17.6565 
454 1 106.42 13.8585 9.49584 16.0098 
54 1 106.42 13.6509 9.70828 19.5101 
477 1 106.42 15.8325 11.8263 15.7643 
444 1 106.42 19.6054 9.64683 17.7375 
460 1 106.42 15.7801 9.58054 17.7083 
479 1 106.42 17.6377 11.6691 17.8317 
62 1 106.42 2.19575 13.7932 19.2818 
462 1 106.42 1.55762 13.7137 15.7563 
468 1 106.42 3.92436 13.667 17.4595 
467 1 106.42 6.30664 11.8343 17.8675 
465 1 106.42 4.62179 11.7384 15.8636 
487 1 106.42 5.93846 15.6087 17.763 
93 1 106.42 12.0299 15.7776 19.4119 
471 1 106.42 9.79367 11.8859 17.9062 
472 1 106.42 8.22231 13.8077 17.3608 
491 1 106.42 10.1047 15.699 17.5667 
89 1 106.42 7.9822 15.5522 19.6803 
474 1 106.42 13.903 13.6418 15.8565 
476 1 106.42 11.9664 13.6422 17.6775 
74 1 106.42 14.0376 13.7275 19.4857 
475 1 106.42 13.7886 11.6006 17.5553 
495 1 106.42 13.8247 15.9269 17.7708 
464 1 106.42 19.4268 13.531 17.6078 
480 1 106.42 15.7845 13.3924 17.99 
483 1 106.42 1.89306 16.0144 17.5328 
403 1 106.42 1.94409 19.6881 17.4383 
488 1 106.42 3.76766 17.454 17.6637 
407 1 106.42 5.98704 19.6711 17.6277 
486 1 106.42 5.73766 17.4575 15.8139 
13 1 106.42 11.7069 19.9684 19.3294 
411 1 106.42 9.89713 19.4297 17.4592 
492 1 106.42 7.71212 17.5082 17.7763 
415 1 106.42 13.7889 19.5305 17.5353 
493 1 106.42 11.9659 15.6814 15.523 
496 1 106.42 11.95 17.7979 17.6156 
500 1 106.42 15.7158 17.7305 17.8617 
419 1 106.42 17.6668 19.6449 17.6314 
97 1 106.42 15.8849 15.7318 19.7287 
484 1 106.42 19.4434 17.8054 17.5863 
498 1 106.42 17.4226 17.7048 15.546 
499 1 106.42 17.7986 15.695 17.6215 
