ITEM: TIMESTEP
97300
ITEM: NUMBER OF ATOMS
501
ITEM: BOX BOUNDS pp pp pp
0.0000000000000000e+00 1.9629018200000001e+01
0.0000000000000000e+00 1.9629018200000001e+01
0.0000000000000000e+00 1.9629018200000001e+01
ITEM: ATOMS id type mass x y z 
23 1 106.42 2.291 3.88197 2.07151 
4 1 106.42 0.337514 1.94345 1.98835 
121 1 106.42 0.0688935 3.8036 3.87956 
2 1 106.42 1.84293 2.012 0.197937 
1 1 106.42 -0.060507 -0.133582 -0.232499 
8 1 106.42 4.17871 2.05853 2.21654 
125 1 106.42 3.97721 3.8344 3.96969 
105 1 106.42 3.7596 0.0972957 3.91838 
29 1 106.42 7.90332 3.8801 -0.188565 
12 1 106.42 7.92677 1.98474 2.20888 
31 1 106.42 10.0685 3.79318 1.82943 
110 1 106.42 9.80948 2.03862 3.92202 
11 1 106.42 9.87614 0.117608 1.67189 
129 1 106.42 7.85168 3.94393 3.899 
16 1 106.42 11.8455 1.93401 1.94101 
33 1 106.42 11.7315 4.00607 -0.0757432 
14 1 106.42 13.6716 2.10255 0.048377 
15 1 106.42 14.3071 0.167763 1.60387 
114 1 106.42 13.7857 2.14868 3.92348 
113 1 106.42 11.7714 0.285322 3.83455 
13 1 106.42 12.1121 0.0244285 -0.257019 
20 1 106.42 15.9702 1.78838 2.01218 
19 1 106.42 17.994 0.000379314 2.03443 
137 1 106.42 15.6506 3.8639 4.16195 
17 1 106.42 15.8176 0.15757 -0.358664 
24 1 106.42 -0.018897 5.98761 1.76917 
28 1 106.42 4.02608 6.07876 1.6248 
43 1 106.42 2.12542 7.83381 1.87796 
145 1 106.42 3.97322 7.91085 3.98117 
22 1 106.42 1.92591 5.86588 -0.107216 
27 1 106.42 6.12299 3.9374 1.96842 
26 1 106.42 5.87333 6.15841 -0.218032 
47 1 106.42 5.81619 7.99276 2.00214 
32 1 106.42 8.06156 5.61261 1.81391 
49 1 106.42 7.95174 8.02945 0.289774 
149 1 106.42 7.87453 7.62849 3.69883 
130 1 106.42 9.92202 5.66377 3.85809 
30 1 106.42 9.7118 5.90876 0.0556373 
35 1 106.42 13.9196 4.20177 1.9226 
36 1 106.42 11.9662 6.00493 2.09968 
34 1 106.42 13.7604 6.0845 0.0183313 
57 1 106.42 15.3362 7.79212 0.424137 
39 1 106.42 17.7729 3.76715 1.95653 
40 1 106.42 15.9539 5.79943 2.27043 
157 1 106.42 15.8691 8.14507 3.92784 
37 1 106.42 15.6895 3.85577 -0.0900071 
38 1 106.42 17.5552 6.15651 0.0798149 
141 1 106.42 0.127941 7.84315 3.92966 
142 1 106.42 1.8964 9.67896 3.90052 
42 1 106.42 2.27143 9.77261 -0.00644334 
48 1 106.42 4.24745 9.80476 2.0989 
67 1 106.42 6.07779 11.9397 2.06127 
51 1 106.42 9.89536 7.72828 1.96378 
52 1 106.42 7.9085 9.81754 2.0894 
50 1 106.42 9.74425 9.73624 0.0588745 
71 1 106.42 10.093 11.8793 2.23301 
69 1 106.42 8.00302 11.6144 -0.113016 
53 1 106.42 11.9209 7.9933 0.161666 
55 1 106.42 13.7552 7.85975 2.28345 
56 1 106.42 11.4998 9.7682 2.37108 
75 1 106.42 13.5018 11.9956 2.094 
54 1 106.42 13.7395 10.002 0.293395 
59 1 106.42 17.6449 7.97829 1.95142 
44 1 106.42 19.8095 9.51179 1.72733 
60 1 106.42 15.8309 9.94824 1.91124 
158 1 106.42 17.766 9.92311 3.9512 
63 1 106.42 2.25386 11.6623 1.99575 
162 1 106.42 1.89281 13.6403 3.83186 
83 1 106.42 1.93924 15.4976 1.80145 
185 1 106.42 3.80313 15.4687 3.9773 
161 1 106.42 0.277016 11.5533 3.79713 
68 1 106.42 4.09911 13.6111 2.05545 
166 1 106.42 6.00213 13.8447 3.98052 
66 1 106.42 5.88673 13.6643 0.0111412 
87 1 106.42 5.89701 15.4222 1.83889 
72 1 106.42 7.95231 13.6887 1.9385 
70 1 106.42 10.1851 13.486 0.450601 
170 1 106.42 9.6118 13.9686 4.05983 
73 1 106.42 11.716 11.5009 0.270662 
76 1 106.42 11.7091 13.9707 2.27625 
174 1 106.42 13.6135 13.7625 4.07803 
93 1 106.42 11.6983 15.8242 -0.0169148 
74 1 106.42 13.7181 13.907 0.393427 
97 1 106.42 15.8353 15.8388 -0.0727297 
77 1 106.42 15.6947 11.8458 0.272673 
80 1 106.42 15.8244 13.6033 1.85223 
79 1 106.42 17.9774 11.4847 1.91225 
64 1 106.42 19.5735 13.5648 1.62748 
3 1 106.42 2.20153 19.5576 2.09078 
182 1 106.42 2.17369 17.2397 3.54494 
84 1 106.42 0.0538614 17.6941 2.04634 
101 1 106.42 0.275646 19.54 3.94823 
5 1 106.42 4.04495 19.5664 0.0708367 
7 1 106.42 5.95802 19.7637 1.99473 
88 1 106.42 4.18389 17.4428 1.93424 
186 1 106.42 5.79802 17.6691 3.95399 
92 1 106.42 7.90177 17.8872 2.27603 
91 1 106.42 9.74076 15.9093 1.9937 
189 1 106.42 7.79823 15.8317 3.8162 
193 1 106.42 11.6139 16.0562 3.86489 
190 1 106.42 9.77481 17.6043 4.09967 
89 1 106.42 7.95225 15.9265 0.152105 
96 1 106.42 11.982 17.8377 1.7173 
95 1 106.42 13.9015 15.8665 2.19922 
194 1 106.42 13.6204 18.0689 3.64973 
100 1 106.42 15.823 17.8184 1.70084 
99 1 106.42 17.5947 15.7352 1.94487 
102 1 106.42 1.92509 2.00556 4.12627 
104 1 106.42 0.00870103 1.98932 6.11753 
123 1 106.42 2.17889 3.74777 6.30224 
103 1 106.42 1.9738 -0.0373883 5.76346 
106 1 106.42 6.00183 1.77895 3.95334 
108 1 106.42 4.03914 2.19508 6.09135 
229 1 106.42 7.77361 4.11023 8.10035 
112 1 106.42 8.0676 1.90778 6.07314 
111 1 106.42 9.82541 -0.0184964 5.99986 
133 1 106.42 11.927 3.94704 3.91025 
116 1 106.42 11.7406 2.01497 5.88399 
214 1 106.42 13.701 1.81644 7.94987 
135 1 106.42 13.7828 3.78962 6.0719 
237 1 106.42 15.812 3.56653 7.80512 
118 1 106.42 17.8322 1.87225 4.14031 
120 1 106.42 15.6514 1.80855 5.81095 
117 1 106.42 15.7423 -0.137548 3.85892 
218 1 106.42 17.6489 2.01643 7.99645 
122 1 106.42 1.66901 5.66586 3.79469 
124 1 106.42 0.130624 5.70226 5.9928 
127 1 106.42 6.02467 3.75295 5.93627 
128 1 106.42 3.7664 5.88186 5.79899 
126 1 106.42 5.9368 5.88259 3.97194 
132 1 106.42 7.85979 6.01674 5.76867 
147 1 106.42 5.93658 7.66837 6.21635 
131 1 106.42 9.66227 4.01659 5.81825 
136 1 106.42 12.0998 5.62749 6.22318 
151 1 106.42 9.92323 7.79396 6.2713 
134 1 106.42 13.9565 5.54186 4.05335 
153 1 106.42 11.6605 7.84682 4.29709 
234 1 106.42 14.1301 5.86969 7.74064 
139 1 106.42 17.7007 3.77117 5.94738 
257 1 106.42 15.6183 7.98451 7.75637 
138 1 106.42 18.0682 5.80878 3.81247 
140 1 106.42 15.7679 5.6791 5.89093 
159 1 106.42 17.7446 7.81872 5.60341 
143 1 106.42 2.03232 7.54977 5.69243 
163 1 106.42 2.10778 11.5702 5.84872 
242 1 106.42 1.84147 9.65163 7.57146 
146 1 106.42 6.25272 9.64286 3.95695 
165 1 106.42 4.09572 11.75 3.79237 
148 1 106.42 4.21815 9.46756 5.84729 
167 1 106.42 6.04643 11.7012 6.05939 
150 1 106.42 9.68616 9.70749 4.02112 
169 1 106.42 8.24284 11.7655 3.91445 
152 1 106.42 7.70484 9.41206 6.07932 
155 1 106.42 13.9787 8.20996 5.81399 
156 1 106.42 11.6628 9.72952 5.95396 
253 1 106.42 12.4247 7.80368 7.95307 
154 1 106.42 13.9951 9.84704 3.84661 
273 1 106.42 11.9819 11.8368 7.61909 
144 1 106.42 19.5385 9.93009 5.83319 
160 1 106.42 16.1388 10.0447 5.85749 
241 1 106.42 19.5116 7.83387 7.89757 
164 1 106.42 0.447034 13.6852 5.78208 
168 1 106.42 3.89837 13.5019 5.76291 
285 1 106.42 3.53975 15.8329 7.90523 
281 1 106.42 0.0835094 15.7525 7.82899 
262 1 106.42 2.28077 13.7554 7.93499 
172 1 106.42 7.60189 13.9049 5.79445 
266 1 106.42 5.6362 13.9345 8.04409 
171 1 106.42 9.83723 11.3737 6.06289 
176 1 106.42 11.7003 13.8733 5.9452 
269 1 106.42 7.8561 11.6084 7.73059 
173 1 106.42 11.7088 11.8413 4.33688 
197 1 106.42 15.9259 15.7043 4.12504 
175 1 106.42 14.0352 11.4957 5.64346 
180 1 106.42 15.8334 13.6737 5.7492 
274 1 106.42 13.6627 13.959 7.41094 
177 1 106.42 16.2764 12.1639 3.72982 
179 1 106.42 17.8322 12.2164 6.10628 
178 1 106.42 17.9537 13.8513 3.56019 
199 1 106.42 17.7155 15.7079 6.10122 
277 1 106.42 15.636 11.9026 7.80122 
183 1 106.42 2.01349 15.7208 5.9148 
282 1 106.42 1.89024 17.9286 7.88496 
188 1 106.42 3.85664 17.6307 5.8661 
109 1 106.42 8.16351 19.8081 3.96017 
107 1 106.42 5.97157 19.3591 5.82932 
187 1 106.42 5.49764 15.5662 5.67166 
192 1 106.42 7.87914 17.41 5.9206 
286 1 106.42 5.79885 17.2807 7.8892 
209 1 106.42 7.75524 19.4032 7.56986 
205 1 106.42 3.74401 19.5017 7.88691 
191 1 106.42 9.86785 15.7367 5.98181 
196 1 106.42 11.6909 18.047 5.67415 
115 1 106.42 13.6493 19.7153 5.67364 
195 1 106.42 13.4598 15.9457 5.77832 
294 1 106.42 13.596 17.5907 7.83399 
181 1 106.42 19.7348 15.6825 3.84061 
119 1 106.42 17.7754 19.7691 5.84443 
184 1 106.42 19.5994 17.8098 5.84911 
200 1 106.42 15.686 17.6108 5.75629 
198 1 106.42 17.5025 17.5786 3.72152 
217 1 106.42 15.6223 19.4183 7.60579 
202 1 106.42 2.02852 1.80646 7.97283 
221 1 106.42 -0.162913 3.78448 7.94721 
302 1 106.42 1.98369 1.88587 11.9525 
203 1 106.42 1.84463 0.149188 9.92063 
208 1 106.42 4.01699 2.2732 9.95556 
206 1 106.42 5.82449 1.72177 7.8127 
210 1 106.42 9.9689 2.111 7.74907 
212 1 106.42 7.89901 1.85599 9.88551 
216 1 106.42 11.5751 1.8612 9.78181 
231 1 106.42 9.84233 3.98259 9.86311 
310 1 106.42 9.70836 2.01858 11.768 
220 1 106.42 15.5616 1.84562 9.79276 
333 1 106.42 11.7622 3.89757 11.5976 
314 1 106.42 13.633 2.10384 11.6862 
201 1 106.42 19.4437 -0.0184381 8.21082 
204 1 106.42 19.6521 2.10676 10.0666 
318 1 106.42 17.6828 1.7041 11.8848 
301 1 106.42 19.3091 0.00961732 11.6669 
222 1 106.42 1.82562 5.74237 7.81567 
223 1 106.42 1.97014 4.04185 10.1922 
322 1 106.42 1.74091 5.90096 11.9283 
245 1 106.42 3.64799 7.66674 8.02428 
225 1 106.42 4.12348 4.06824 8.16939 
227 1 106.42 6.05426 3.81188 10.0847 
226 1 106.42 5.66347 5.8913 8.05499 
228 1 106.42 3.65995 5.91178 9.88089 
232 1 106.42 7.51222 5.86118 10.0373 
247 1 106.42 5.78071 7.96304 10.0008 
233 1 106.42 11.9024 4.02456 7.9483 
230 1 106.42 9.69451 5.80086 7.93828 
236 1 106.42 12.0813 6.06162 9.92361 
251 1 106.42 9.74908 7.60298 9.95276 
235 1 106.42 13.8337 4.13934 9.62234 
337 1 106.42 15.6904 3.66418 11.3652 
334 1 106.42 14.109 5.79449 11.638 
238 1 106.42 17.7367 5.75772 7.79102 
240 1 106.42 15.8239 6.197 9.74181 
224 1 106.42 19.579 5.80878 9.83588 
239 1 106.42 17.4697 3.96248 9.83109 
259 1 106.42 17.973 7.92696 9.71698 
338 1 106.42 17.7052 5.81175 11.7287 
243 1 106.42 1.7769 8.11672 10.2071 
263 1 106.42 2.08505 11.4027 9.57433 
365 1 106.42 3.9841 11.4821 11.9626 
265 1 106.42 3.96459 11.7184 7.70053 
249 1 106.42 7.74089 7.60092 8.10727 
246 1 106.42 5.99329 9.76154 7.94289 
248 1 106.42 3.90543 9.63304 9.93243 
252 1 106.42 8.01962 9.89167 9.65404 
267 1 106.42 5.69963 11.8643 9.85441 
349 1 106.42 7.87664 7.85064 11.728 
353 1 106.42 11.7977 8.06765 12.0312 
369 1 106.42 7.68742 11.7826 11.7175 
250 1 106.42 10.1061 9.65339 8.10267 
271 1 106.42 10.0366 11.7599 9.7478 
350 1 106.42 9.66669 10.0252 11.8228 
254 1 106.42 13.8828 9.8133 7.96998 
255 1 106.42 13.7201 7.9614 10.1327 
256 1 106.42 11.8251 9.77389 9.77055 
275 1 106.42 13.5191 11.7999 9.98897 
261 1 106.42 19.7439 11.874 7.69171 
260 1 106.42 15.7031 9.83256 9.9008 
258 1 106.42 17.6796 9.92285 7.92003 
244 1 106.42 19.5598 9.93746 9.81514 
358 1 106.42 17.8226 9.88835 11.9425 
268 1 106.42 3.60189 13.5765 10.0882 
264 1 106.42 0.206188 13.7433 9.63011 
272 1 106.42 7.8019 13.6463 9.69144 
366 1 106.42 6.07871 13.735 11.6592 
389 1 106.42 7.77998 15.4789 11.5535 
289 1 106.42 7.63469 15.8496 7.85236 
270 1 106.42 9.70214 13.7189 7.59896 
276 1 106.42 11.8081 13.5048 9.79567 
370 1 106.42 9.77321 13.6765 11.663 
291 1 106.42 9.73617 15.4381 9.60896 
374 1 106.42 13.5721 13.502 11.8403 
280 1 106.42 15.5897 13.6866 9.77549 
293 1 106.42 11.6626 15.6902 7.95457 
295 1 106.42 13.5083 15.2959 9.92709 
297 1 106.42 15.5979 15.6337 7.68653 
278 1 106.42 17.7052 13.992 7.97714 
279 1 106.42 17.8264 11.8551 9.69669 
299 1 106.42 17.5718 15.7806 9.87541 
361 1 106.42 19.6813 11.8811 11.5299 
378 1 106.42 17.5181 13.7368 11.9535 
381 1 106.42 19.5389 15.5649 11.7567 
283 1 106.42 1.84255 15.6449 9.70936 
288 1 106.42 3.67338 17.5835 10.0165 
382 1 106.42 1.79037 17.6891 11.7019 
287 1 106.42 5.47392 15.702 9.80072 
207 1 106.42 5.84153 19.7296 9.64027 
292 1 106.42 7.70384 17.5005 9.76631 
386 1 106.42 5.6247 17.7464 11.8931 
213 1 106.42 11.5877 19.4419 8.05997 
290 1 106.42 9.89318 17.6464 7.6783 
211 1 106.42 9.59345 19.4393 9.67079 
390 1 106.42 9.78651 17.3485 11.3607 
296 1 106.42 11.6693 17.3856 9.80215 
393 1 106.42 11.6729 15.5556 11.9844 
215 1 106.42 13.9735 19.636 9.86797 
317 1 106.42 15.442 19.6602 11.8005 
397 1 106.42 15.5577 15.5407 11.7398 
394 1 106.42 13.8143 17.5174 11.6504 
300 1 106.42 15.6917 17.5339 9.61792 
298 1 106.42 17.6811 17.7343 7.8192 
219 1 106.42 17.2048 19.5645 9.75393 
284 1 106.42 19.5272 17.8098 9.88187 
398 1 106.42 17.4701 17.582 11.6877 
305 1 106.42 3.99629 0.241572 11.7509 
308 1 106.42 4.02003 2.45483 13.788 
402 1 106.42 1.94054 2.02627 15.6553 
405 1 106.42 3.83003 -0.118114 15.6154 
306 1 106.42 6.02034 1.99285 11.8914 
312 1 106.42 8.00919 1.90732 13.6905 
309 1 106.42 7.71274 -0.300111 11.5942 
406 1 106.42 5.95833 1.99354 15.5656 
331 1 106.42 9.89715 3.78361 13.5312 
410 1 106.42 9.98113 1.95995 15.8223 
316 1 106.42 11.9024 2.09282 13.8015 
329 1 106.42 8.03113 3.95364 11.6097 
320 1 106.42 15.5304 2.01157 13.52 
414 1 106.42 13.9226 2.28137 15.8351 
413 1 106.42 11.8297 0.266999 15.7499 
315 1 106.42 13.8254 -0.0693603 13.6623 
417 1 106.42 15.573 0.116756 15.5828 
321 1 106.42 19.4987 3.9806 11.95 
304 1 106.42 19.6459 1.93231 13.5743 
418 1 106.42 17.6689 1.90065 15.3108 
401 1 106.42 19.5301 -0.0452054 15.6527 
325 1 106.42 3.80489 4.45795 12.1587 
345 1 106.42 3.61989 7.77534 11.9788 
323 1 106.42 1.58943 3.86615 13.9845 
328 1 106.42 3.88678 6.03151 13.9082 
327 1 106.42 6.00835 3.9301 13.7556 
326 1 106.42 5.6305 6.13337 11.9284 
429 1 106.42 7.96943 4.02302 15.6724 
330 1 106.42 9.94442 5.73344 11.7138 
332 1 106.42 7.74579 5.77081 13.6084 
430 1 106.42 9.79474 5.78986 15.4869 
453 1 106.42 11.5857 7.56005 15.3426 
433 1 106.42 11.804 3.88792 15.8068 
336 1 106.42 11.9372 5.76085 13.4419 
335 1 106.42 13.5978 3.95956 13.5913 
355 1 106.42 13.9942 7.93761 13.6282 
437 1 106.42 15.6321 4.02165 15.5149 
324 1 106.42 19.4109 6.06046 13.8708 
340 1 106.42 15.5041 5.84138 13.8131 
339 1 106.42 17.3978 3.90796 13.5413 
359 1 106.42 17.3995 7.80057 13.8576 
342 1 106.42 1.89122 9.80065 11.8613 
343 1 106.42 1.96553 8.18117 13.8155 
363 1 106.42 1.56008 11.7779 13.5085 
347 1 106.42 5.83833 7.85823 13.854 
348 1 106.42 4.06615 9.61866 13.71 
346 1 106.42 5.86055 9.62699 11.6979 
446 1 106.42 5.89041 10.1642 15.7374 
352 1 106.42 7.75867 9.89324 13.8184 
351 1 106.42 9.7591 7.87163 13.4558 
356 1 106.42 11.564 9.92324 13.6653 
371 1 106.42 9.68611 12.0931 13.9677 
357 1 106.42 15.8588 8.18858 11.6471 
354 1 106.42 13.7921 9.92326 11.9173 
373 1 106.42 11.5147 11.7889 11.7826 
377 1 106.42 15.7228 11.9593 11.667 
454 1 106.42 13.6324 9.89259 15.3556 
341 1 106.42 19.5422 7.9094 11.945 
344 1 106.42 19.3684 9.84917 13.924 
360 1 106.42 15.7498 9.94825 13.8109 
461 1 106.42 19.5225 11.7511 15.8426 
362 1 106.42 1.70376 13.7842 11.8452 
368 1 106.42 3.84542 13.7175 13.4901 
462 1 106.42 1.88073 13.722 15.4162 
465 1 106.42 3.33447 11.7012 15.2773 
367 1 106.42 5.8166 11.7832 13.754 
387 1 106.42 5.79493 15.7162 13.4912 
372 1 106.42 7.80208 13.6772 13.8444 
376 1 106.42 11.6092 13.6295 13.8754 
391 1 106.42 9.82912 15.6832 13.7745 
375 1 106.42 13.755 11.9193 13.6622 
380 1 106.42 15.3948 13.8235 13.7635 
379 1 106.42 17.5471 11.9103 13.8901 
364 1 106.42 19.6789 13.7651 13.7182 
481 1 106.42 19.3977 15.7501 15.7949 
385 1 106.42 3.82949 15.6473 11.7798 
303 1 106.42 1.8589 19.2751 13.9063 
383 1 106.42 2.00549 15.8058 13.6671 
388 1 106.42 3.84234 17.6579 13.8328 
482 1 106.42 1.92429 17.371 15.7634 
485 1 106.42 4.29295 15.6747 15.8087 
307 1 106.42 5.5947 19.7085 13.7176 
392 1 106.42 8.08515 17.3427 13.443 
409 1 106.42 7.83577 19.5314 15.4712 
486 1 106.42 6.27296 17.7022 15.4418 
313 1 106.42 11.6767 19.6976 11.8697 
311 1 106.42 9.58863 19.4491 13.4573 
396 1 106.42 11.5435 17.6601 13.8585 
395 1 106.42 13.5055 15.7068 13.7596 
494 1 106.42 13.5535 17.8972 15.5951 
497 1 106.42 15.6167 15.924 15.3937 
400 1 106.42 15.6326 17.5944 13.4623 
319 1 106.42 17.2995 19.4708 13.6122 
399 1 106.42 17.5165 15.7866 13.5295 
384 1 106.42 19.4684 17.8382 13.5665 
498 1 106.42 17.5833 17.7433 15.8866 
408 1 106.42 4.01627 1.97178 17.8153 
423 1 106.42 2.02935 3.70363 17.8021 
404 1 106.42 0.20509 1.75764 17.7365 
6 1 106.42 5.91828 1.98936 19.4047 
412 1 106.42 7.53883 1.9154 17.418 
9 1 106.42 7.86899 0.0376622 19.7194 
407 1 106.42 5.80456 -0.197744 17.4715 
10 1 106.42 9.61619 1.85706 19.3805 
431 1 106.42 9.78921 4.01579 17.5592 
416 1 106.42 12.0475 2.19956 17.7579 
411 1 106.42 9.91126 0.246699 17.6026 
415 1 106.42 13.7441 0.255842 17.5243 
18 1 106.42 17.9292 1.99138 19.7792 
420 1 106.42 15.839 2.24408 17.5759 
421 1 106.42 19.4576 3.97016 15.9796 
419 1 106.42 17.6708 0.271441 17.5871 
41 1 106.42 -0.0920488 7.71347 19.2503 
422 1 106.42 1.6994 5.92592 15.4872 
443 1 106.42 1.80383 7.65496 17.4714 
428 1 106.42 3.59666 5.91162 17.4405 
21 1 106.42 -0.145655 4.07175 19.7466 
25 1 106.42 4.12523 3.87909 19.6734 
425 1 106.42 4.2754 4.2669 15.5549 
426 1 106.42 6.11811 6.05289 15.72 
427 1 106.42 5.70512 4.00177 17.7912 
432 1 106.42 7.9736 5.99342 17.6816 
449 1 106.42 7.96112 7.95832 15.4712 
436 1 106.42 11.8004 5.75131 17.5102 
435 1 106.42 13.8336 3.95299 17.9264 
434 1 106.42 13.5776 5.85343 15.5552 
455 1 106.42 13.7556 7.99036 17.7332 
440 1 106.42 15.6853 5.88796 17.5779 
439 1 106.42 17.7432 4.0386 17.6862 
424 1 106.42 19.6449 5.78677 17.6914 
438 1 106.42 17.6545 5.80565 15.5543 
459 1 106.42 17.4612 7.63717 17.8051 
442 1 106.42 1.80999 9.7761 15.9905 
463 1 106.42 1.87753 11.9403 17.572 
448 1 106.42 3.9827 10.0615 17.5356 
45 1 106.42 3.75881 7.90871 19.3174 
46 1 106.42 5.90884 9.7119 19.571 
445 1 106.42 3.74251 8.04428 15.9262 
447 1 106.42 5.89624 7.96564 17.3816 
467 1 106.42 5.86641 12.0288 17.6428 
451 1 106.42 9.87843 7.51727 17.853 
450 1 106.42 10.0118 9.63273 15.8174 
452 1 106.42 7.90689 9.80142 17.564 
501 2 1.01 10.1581 9.22587 17.828 
456 1 106.42 11.8986 9.82536 17.7849 
473 1 106.42 12.0229 11.852 15.9472 
457 1 106.42 15.2764 7.78773 15.8154 
477 1 106.42 15.6264 11.8034 15.8658 
460 1 106.42 15.3632 9.68886 17.9718 
58 1 106.42 17.4864 9.87335 19.3824 
458 1 106.42 17.5295 9.61755 15.982 
441 1 106.42 19.5697 8.10478 15.9461 
444 1 106.42 19.6318 10.0942 17.7679 
479 1 106.42 17.411 11.8252 17.7169 
85 1 106.42 3.79767 15.404 19.2588 
62 1 106.42 1.95545 13.4725 19.8983 
483 1 106.42 1.84901 15.5377 17.473 
466 1 106.42 5.6204 13.609 15.2867 
65 1 106.42 3.9378 11.8808 19.6674 
468 1 106.42 3.8285 13.605 17.3549 
487 1 106.42 6.11202 15.74 17.6341 
469 1 106.42 7.75582 11.9502 15.7571 
470 1 106.42 10.0635 13.7731 16.0074 
471 1 106.42 10.0975 11.861 17.7441 
472 1 106.42 8.10342 13.6717 17.8529 
474 1 106.42 13.7162 14.0064 15.7585 
476 1 106.42 11.7387 13.6926 17.919 
475 1 106.42 13.6608 11.9275 17.8824 
480 1 106.42 15.6289 13.7832 17.7254 
493 1 106.42 11.5244 15.7276 15.8275 
78 1 106.42 17.5603 13.9076 19.5854 
61 1 106.42 19.5319 11.7138 19.697 
81 1 106.42 19.6165 15.7269 19.5211 
478 1 106.42 17.3949 13.6458 15.7718 
464 1 106.42 19.6122 13.6841 17.6696 
499 1 106.42 17.3381 15.8161 17.4321 
82 1 106.42 2.0704 17.537 19.6756 
403 1 106.42 1.86664 19.3831 17.4648 
484 1 106.42 -0.107882 17.3757 17.6907 
86 1 106.42 5.75224 17.7602 19.5918 
488 1 106.42 4.00203 17.7599 17.6079 
90 1 106.42 9.85041 17.8956 19.7856 
489 1 106.42 7.9974 15.4778 15.7113 
490 1 106.42 9.90971 17.8601 15.7278 
491 1 106.42 9.7957 15.6683 18.0577 
492 1 106.42 8.19819 17.8654 17.5271 
94 1 106.42 13.969 17.6822 19.5422 
495 1 106.42 13.7235 15.6744 17.6763 
496 1 106.42 11.7953 17.6365 17.4738 
98 1 106.42 17.7322 17.8074 19.6357 
500 1 106.42 15.4659 17.9454 17.3623 
