ITEM: TIMESTEP
99100
ITEM: NUMBER OF ATOMS
501
ITEM: BOX BOUNDS pp pp pp
0.0000000000000000e+00 1.9629018200000001e+01
0.0000000000000000e+00 1.9629018200000001e+01
0.0000000000000000e+00 1.9629018200000001e+01
ITEM: ATOMS id type mass x y z 
4 1 106.42 0.0351212 2.08632 1.99219 
3 1 106.42 1.77452 0.221788 1.97621 
21 1 106.42 0.0834535 3.87255 -0.151429 
8 1 106.42 3.80842 1.83032 1.89268 
12 1 106.42 7.84138 1.88821 1.82541 
7 1 106.42 5.88317 -0.108706 2.1374 
6 1 106.42 5.61465 1.85181 0.0893112 
31 1 106.42 9.59771 3.92655 1.98004 
11 1 106.42 9.62854 0.248511 2.12135 
113 1 106.42 11.7859 0.0691617 4.16741 
16 1 106.42 11.679 2.07463 1.8438 
14 1 106.42 13.7831 2.07033 -0.537322 
15 1 106.42 13.5051 0.0254054 1.86952 
114 1 106.42 13.8588 1.90438 3.86512 
35 1 106.42 13.6443 3.85359 1.99433 
20 1 106.42 15.5665 1.89927 1.79905 
39 1 106.42 18.0125 4.04717 1.89452 
118 1 106.42 17.7227 1.87088 3.85647 
18 1 106.42 17.6739 1.83564 -0.00304805 
23 1 106.42 1.69727 3.91847 1.88827 
24 1 106.42 -0.0224968 5.81321 1.87006 
43 1 106.42 2.17358 7.70269 1.99769 
141 1 106.42 0.0873235 7.70117 3.88432 
122 1 106.42 2.18816 5.88535 4.05984 
25 1 106.42 3.96035 3.68697 -0.2815 
28 1 106.42 3.83789 5.70314 2.19154 
145 1 106.42 4.12796 7.66926 4.01233 
27 1 106.42 5.7554 3.76624 1.87497 
47 1 106.42 6.25593 7.64156 1.72275 
126 1 106.42 6.25017 5.84356 3.85146 
32 1 106.42 7.89206 5.76924 1.89853 
149 1 106.42 7.71732 7.83433 3.91767 
130 1 106.42 9.75763 5.70364 3.98939 
51 1 106.42 9.74631 7.81992 2.10192 
36 1 106.42 11.6678 5.74472 2.05459 
55 1 106.42 13.8306 7.69156 1.72502 
133 1 106.42 11.9158 3.84907 4.03487 
40 1 106.42 15.5529 5.87603 1.99939 
37 1 106.42 16.0744 3.83892 0.251979 
138 1 106.42 17.6995 5.93016 3.82175 
44 1 106.42 0.0848547 9.62728 2.21029 
63 1 106.42 1.94134 11.5178 2.03169 
161 1 106.42 -0.239737 11.7306 3.96702 
48 1 106.42 4.02798 9.58267 1.90487 
52 1 106.42 7.80404 9.87693 1.89782 
165 1 106.42 3.9199 11.8847 3.82287 
46 1 106.42 5.89747 9.65324 -0.0357901 
65 1 106.42 3.87514 11.7463 0.113409 
49 1 106.42 7.87147 7.85825 -0.336767 
56 1 106.42 11.7928 9.53522 1.91263 
73 1 106.42 11.7262 12.1086 0.0454205 
150 1 106.42 9.79108 9.69917 3.98285 
57 1 106.42 15.7197 8.08306 -0.177474 
53 1 106.42 11.8632 7.62534 0.00459964 
54 1 106.42 13.7973 10.0112 0.33037 
154 1 106.42 13.6111 9.74861 4.08239 
59 1 106.42 17.5728 7.7017 1.93308 
60 1 106.42 15.5886 9.65403 2.13366 
158 1 106.42 17.7399 9.54325 3.88621 
79 1 106.42 17.4775 12.0096 1.75311 
177 1 106.42 15.5388 11.6294 4.00479 
162 1 106.42 1.9313 13.3929 3.71306 
83 1 106.42 2.24827 15.7651 2.08283 
181 1 106.42 0.165039 15.39 3.6536 
62 1 106.42 2.06955 13.6512 0.0533744 
81 1 106.42 0.0931941 15.6448 0.149722 
67 1 106.42 5.86258 11.754 1.79985 
68 1 106.42 4.02351 13.6544 1.76094 
166 1 106.42 5.83814 13.7127 3.58319 
71 1 106.42 9.51947 11.7315 2.12236 
72 1 106.42 8.14023 13.9069 1.93135 
76 1 106.42 11.6947 13.6847 1.95826 
75 1 106.42 13.7801 12.0426 2.10247 
74 1 106.42 13.6038 13.8092 0.0807152 
77 1 106.42 15.5118 11.9906 0.0763424 
80 1 106.42 15.6717 13.8139 1.87809 
64 1 106.42 19.8151 13.5022 1.91409 
197 1 106.42 15.7713 15.9671 3.7127 
178 1 106.42 17.5696 13.4175 4.02461 
182 1 106.42 1.92476 17.9829 4.03619 
84 1 106.42 0.370209 17.5644 1.96498 
82 1 106.42 2.20326 17.6632 0.042328 
87 1 106.42 5.80567 16.1121 2.14755 
88 1 106.42 3.65569 18.0237 1.97713 
92 1 106.42 7.85143 17.6302 2.09631 
91 1 106.42 9.90789 15.7429 2.32935 
89 1 106.42 7.76063 15.9288 0.0861851 
90 1 106.42 9.60316 17.6738 0.054872 
96 1 106.42 11.5927 17.7034 2.19984 
95 1 106.42 13.5843 15.7835 1.85799 
194 1 106.42 13.8004 17.8378 3.90208 
19 1 106.42 17.7372 19.5438 1.93821 
100 1 106.42 15.8989 17.8383 2.11344 
99 1 106.42 17.7621 15.8722 1.89218 
198 1 106.42 17.9506 17.9791 3.81998 
101 1 106.42 0.221479 0.153965 3.94564 
102 1 106.42 2.17969 2.27923 3.99626 
104 1 106.42 0.0571681 1.90401 5.92489 
123 1 106.42 1.82552 4.23673 5.69321 
129 1 106.42 7.73861 3.88921 3.82215 
106 1 106.42 5.88171 1.9856 3.80607 
108 1 106.42 3.7728 1.58296 5.8466 
112 1 106.42 7.93313 2.08114 5.85124 
127 1 106.42 5.83636 4.17615 5.90326 
206 1 106.42 6.01938 2.0516 8.04165 
110 1 106.42 9.8455 2.1174 4.09605 
116 1 106.42 11.6847 2.07181 5.8952 
109 1 106.42 7.768 0.125415 4.00125 
135 1 106.42 13.9069 3.90781 5.73531 
115 1 106.42 13.7729 0.293517 5.62895 
121 1 106.42 19.6088 3.8524 3.98432 
137 1 106.42 15.8093 3.77404 4.04233 
237 1 106.42 15.9022 4.13213 7.92488 
120 1 106.42 15.9896 1.89255 6.20131 
139 1 106.42 17.776 3.61602 6.12701 
143 1 106.42 1.97266 7.69687 5.94061 
241 1 106.42 -0.0758958 7.73952 7.73127 
125 1 106.42 4.20548 3.81537 3.96952 
128 1 106.42 3.84598 5.78586 6.20387 
147 1 106.42 5.98424 7.80089 5.74055 
132 1 106.42 7.90414 5.78347 5.93943 
131 1 106.42 10.1342 4.09004 5.99965 
151 1 106.42 9.80088 7.78317 5.67054 
153 1 106.42 11.9539 7.82431 3.67556 
136 1 106.42 11.8826 6.03372 5.98474 
134 1 106.42 13.6868 5.64983 4.112 
124 1 106.42 19.5231 5.83169 5.81243 
140 1 106.42 15.808 5.9253 5.75585 
159 1 106.42 17.6626 8.03284 6.02112 
238 1 106.42 17.6956 6.14157 8.13532 
142 1 106.42 2.08508 9.57589 4.10678 
163 1 106.42 1.69542 11.9377 5.6886 
242 1 106.42 2.01905 9.7535 7.6457 
146 1 106.42 5.87517 9.72363 3.79517 
148 1 106.42 4.13516 9.71491 5.90392 
152 1 106.42 7.81395 9.68146 5.80987 
269 1 106.42 7.45422 11.4793 7.6794 
265 1 106.42 3.86961 11.6448 7.81406 
156 1 106.42 11.7422 9.58365 5.91018 
171 1 106.42 9.63977 11.6048 5.90218 
173 1 106.42 11.5845 11.4862 4.09704 
155 1 106.42 13.9268 7.86729 6.03833 
175 1 106.42 13.6617 11.7763 5.99115 
157 1 106.42 15.7362 7.77274 3.87436 
257 1 106.42 15.6685 8.12241 7.71753 
144 1 106.42 19.7505 9.63214 5.78629 
160 1 106.42 15.5999 9.83976 5.83048 
164 1 106.42 -0.147531 13.7727 5.97709 
168 1 106.42 3.81286 13.9115 5.74073 
261 1 106.42 0.231257 11.814 7.95817 
185 1 106.42 4.26908 15.7194 3.97669 
189 1 106.42 7.66785 15.6329 3.99798 
167 1 106.42 5.65982 11.8208 5.90722 
172 1 106.42 7.62946 13.5607 6.05871 
187 1 106.42 6.01697 15.8642 6.35707 
289 1 106.42 8.04416 15.5671 7.89043 
170 1 106.42 9.72884 13.5858 4.07735 
169 1 106.42 7.8038 11.8067 3.96282 
176 1 106.42 11.987 13.6417 5.76838 
270 1 106.42 9.97726 13.6432 7.68068 
174 1 106.42 14.1201 13.8003 3.94329 
273 1 106.42 11.572 11.7484 7.87537 
274 1 106.42 13.7513 13.8201 7.84908 
180 1 106.42 15.9105 13.6779 6.0689 
179 1 106.42 17.8663 11.4711 5.84776 
105 1 106.42 3.99294 19.5319 3.97213 
103 1 106.42 1.85962 19.6086 6.14014 
183 1 106.42 1.9362 15.4298 5.7402 
188 1 106.42 3.76253 17.6416 6.09573 
184 1 106.42 0.173075 17.5472 5.70334 
186 1 106.42 5.81463 17.5875 4.12657 
107 1 106.42 5.88734 19.8238 5.90405 
192 1 106.42 7.81741 17.8821 5.93837 
190 1 106.42 10.0076 17.8176 3.95648 
111 1 106.42 9.76047 19.7088 6.00416 
191 1 106.42 9.5933 15.8832 5.69666 
293 1 106.42 11.8921 15.5548 7.43828 
290 1 106.42 9.79984 17.5967 7.87272 
193 1 106.42 11.9607 15.7689 4.12213 
196 1 106.42 11.9835 17.6979 5.95096 
195 1 106.42 14.0688 15.672 5.78537 
200 1 106.42 15.5356 18.0221 5.86646 
217 1 106.42 15.6111 19.6847 8.07013 
297 1 106.42 15.7419 15.8509 7.79789 
117 1 106.42 15.7544 19.8373 3.83088 
281 1 106.42 19.4782 15.6523 7.71462 
199 1 106.42 17.6423 15.8273 5.35813 
119 1 106.42 17.6224 19.4632 5.94046 
298 1 106.42 17.4333 17.6032 7.81127 
205 1 106.42 3.89823 0.214749 7.91316 
202 1 106.42 1.85936 1.85312 8.00735 
221 1 106.42 -0.091729 3.94141 8.06131 
203 1 106.42 1.99246 -0.190889 10.0694 
208 1 106.42 3.99847 1.6402 10.0491 
204 1 106.42 0.0299572 1.69453 10.1125 
223 1 106.42 2.08072 3.86365 9.64904 
225 1 106.42 3.81993 3.4084 7.41351 
227 1 106.42 5.53828 3.96613 9.69658 
305 1 106.42 3.90121 -0.172917 12.0625 
306 1 106.42 5.85678 1.90227 11.6682 
210 1 106.42 9.65541 1.79458 7.84995 
212 1 106.42 7.85886 2.06503 9.93061 
216 1 106.42 11.8006 2.07223 9.73427 
310 1 106.42 9.83235 1.94241 11.4961 
313 1 106.42 11.8541 -0.106093 11.664 
214 1 106.42 13.9078 2.1784 7.76715 
220 1 106.42 15.8496 1.9507 9.76228 
333 1 106.42 11.725 3.89004 11.8536 
314 1 106.42 13.9025 1.79059 11.878 
233 1 106.42 11.8662 3.86839 7.80289 
235 1 106.42 14.0477 3.76376 10.0314 
213 1 106.42 11.8245 0.0332827 7.61303 
218 1 106.42 17.891 1.84438 8.03792 
201 1 106.42 19.6605 -0.167644 7.87822 
222 1 106.42 2.29487 5.64521 7.84257 
245 1 106.42 3.97737 7.67896 7.6294 
228 1 106.42 3.92843 5.73948 9.99957 
224 1 106.42 0.0770547 5.92367 10.0464 
243 1 106.42 1.92052 7.71221 9.71677 
229 1 106.42 7.93188 4.0063 7.76614 
226 1 106.42 5.89914 5.80746 7.92271 
232 1 106.42 8.1764 6.04339 9.75138 
247 1 106.42 5.8622 7.54667 9.65027 
329 1 106.42 7.81315 3.89788 11.3913 
326 1 106.42 5.91642 5.65558 11.7401 
231 1 106.42 9.69294 4.04083 9.98627 
230 1 106.42 10.0819 5.89718 7.89007 
251 1 106.42 9.94714 8.06742 9.90049 
249 1 106.42 8.02538 7.75493 7.7923 
330 1 106.42 9.82835 6.00849 11.723 
234 1 106.42 13.8602 6.06013 8.10641 
253 1 106.42 11.8253 8.01462 8.00663 
236 1 106.42 11.9805 5.67912 9.74832 
334 1 106.42 13.4818 5.9767 11.7686 
240 1 106.42 15.9147 5.61461 10.1069 
239 1 106.42 17.8902 3.95419 9.95759 
263 1 106.42 1.78185 12.1891 10.1497 
248 1 106.42 3.46264 9.9469 9.86934 
244 1 106.42 0.141601 9.73896 9.58716 
345 1 106.42 4.02754 8.05341 11.5347 
246 1 106.42 5.9871 9.44808 7.74712 
346 1 106.42 5.83448 9.85772 11.7513 
252 1 106.42 7.62496 9.44935 9.98453 
250 1 106.42 9.77258 9.81742 7.7333 
254 1 106.42 13.5277 9.72636 7.97266 
255 1 106.42 14.115 7.96937 9.87909 
256 1 106.42 11.8422 10.0051 10.0837 
260 1 106.42 15.7698 9.95879 9.67513 
259 1 106.42 17.6476 8.13465 9.70921 
258 1 106.42 17.8389 9.88475 7.74016 
341 1 106.42 19.2923 8.00092 11.5908 
262 1 106.42 2.06714 13.8443 7.93701 
268 1 106.42 4.12425 13.7539 9.80261 
361 1 106.42 -0.0715065 11.5734 11.8926 
362 1 106.42 1.52591 14.0627 11.7963 
385 1 106.42 3.97375 15.8619 11.7394 
266 1 106.42 5.55587 13.4864 7.74603 
267 1 106.42 5.98674 11.5168 9.83823 
272 1 106.42 7.66236 13.6137 9.69665 
366 1 106.42 5.74349 13.6628 11.9871 
287 1 106.42 6.0418 15.5346 9.76792 
271 1 106.42 9.59417 11.5534 9.67117 
389 1 106.42 8.01938 15.7985 11.7026 
276 1 106.42 11.5839 13.9028 9.60316 
291 1 106.42 9.82913 15.8609 9.86387 
277 1 106.42 15.5949 11.5926 7.63195 
275 1 106.42 13.6637 12.009 9.71043 
280 1 106.42 15.7155 13.8836 9.74992 
295 1 106.42 13.69 15.6214 9.58443 
264 1 106.42 19.6051 14.0179 9.54516 
278 1 106.42 17.6153 13.7666 7.6817 
279 1 106.42 17.5495 11.7377 9.56938 
299 1 106.42 17.5286 15.7764 9.89027 
377 1 106.42 15.9472 12.022 11.7556 
285 1 106.42 3.96816 15.6767 8.15757 
282 1 106.42 1.87555 17.5773 8.01321 
283 1 106.42 1.8599 15.8823 9.88182 
288 1 106.42 3.79124 17.7181 9.79445 
286 1 106.42 5.793 18.0129 7.69756 
207 1 106.42 6.04198 19.5148 10.0137 
292 1 106.42 7.68024 17.536 9.51245 
386 1 106.42 5.98647 17.3895 11.7249 
309 1 106.42 8.07355 19.7221 11.6978 
209 1 106.42 7.89678 19.5694 8.04284 
211 1 106.42 10.163 19.5014 9.72545 
390 1 106.42 9.70029 17.7093 11.9024 
294 1 106.42 13.6699 17.6053 7.79414 
296 1 106.42 11.6545 17.4626 9.73168 
215 1 106.42 13.8005 19.6483 9.78963 
394 1 106.42 14.0086 17.6761 12.0013 
300 1 106.42 15.5365 17.6387 9.94056 
381 1 106.42 19.4013 15.9728 11.7977 
219 1 106.42 17.667 19.3998 10.0354 
284 1 106.42 19.4012 17.7944 9.67987 
302 1 106.42 1.99974 1.96288 11.8206 
304 1 106.42 0.0182658 1.89724 13.926 
303 1 106.42 2.25146 0.0631337 13.8103 
308 1 106.42 4.29109 1.62156 13.8818 
406 1 106.42 5.83782 2.1007 15.7688 
307 1 106.42 6.21224 0.0134623 13.5276 
312 1 106.42 7.95407 2.12631 13.3558 
331 1 106.42 9.75652 3.9711 13.576 
413 1 106.42 11.5408 -0.147574 15.7649 
433 1 106.42 11.8084 4.1123 15.4816 
409 1 106.42 8.05399 0.280961 15.6014 
337 1 106.42 15.7259 3.92973 12.0042 
316 1 106.42 11.6131 2.13728 13.4252 
320 1 106.42 15.8112 1.77446 13.8158 
414 1 106.42 13.3712 1.83092 15.7022 
335 1 106.42 13.7964 3.83347 13.7987 
437 1 106.42 15.6702 3.70681 15.8566 
318 1 106.42 17.5349 2.13581 11.5603 
417 1 106.42 15.5862 0.0908868 15.7829 
418 1 106.42 17.5862 1.9783 15.9291 
339 1 106.42 17.7501 3.80709 13.6959 
421 1 106.42 19.6839 3.9634 15.718 
322 1 106.42 1.99522 6.0215 11.8465 
321 1 106.42 0.222043 3.66407 12.0106 
325 1 106.42 3.97141 3.88926 11.6558 
323 1 106.42 2.29799 4.05941 13.7107 
328 1 106.42 4.02767 5.98081 13.7335 
422 1 106.42 2.00647 6.13348 15.9957 
327 1 106.42 5.94914 3.94111 13.5742 
347 1 106.42 5.89384 7.87098 13.6931 
425 1 106.42 3.57555 3.74066 15.6593 
426 1 106.42 5.89114 5.65974 15.6047 
332 1 106.42 7.93813 6.07576 13.6998 
430 1 106.42 9.78496 5.8234 15.8018 
453 1 106.42 12.1974 7.8781 15.5673 
336 1 106.42 11.7951 6.02223 13.825 
351 1 106.42 10.071 8.04235 13.7297 
340 1 106.42 15.7902 5.97948 13.7508 
434 1 106.42 14.0208 5.92295 15.488 
457 1 106.42 15.7093 7.99975 15.5158 
338 1 106.42 17.8241 5.7011 11.8798 
324 1 106.42 19.3745 5.78841 13.7747 
359 1 106.42 17.729 8.20203 13.6879 
438 1 106.42 17.396 5.72704 15.9382 
342 1 106.42 1.74054 9.63786 11.6675 
343 1 106.42 1.63442 7.82809 13.9811 
363 1 106.42 2.09142 11.8885 13.9452 
348 1 106.42 3.79033 9.64962 13.6517 
465 1 106.42 4.20402 11.9556 15.9164 
365 1 106.42 3.9069 11.5721 11.7315 
367 1 106.42 5.9705 11.6402 13.7532 
349 1 106.42 7.55928 7.77297 11.8536 
350 1 106.42 9.85559 9.7186 11.6828 
352 1 106.42 7.73463 9.67106 13.8064 
356 1 106.42 11.9388 9.70264 13.6819 
371 1 106.42 9.66897 11.7256 13.7033 
449 1 106.42 7.92636 7.81051 15.7279 
353 1 106.42 11.7858 7.8144 11.7472 
355 1 106.42 13.7654 7.96706 13.5836 
354 1 106.42 13.9478 10.0369 11.7414 
360 1 106.42 15.637 9.92694 13.7371 
375 1 106.42 13.6349 11.8477 13.828 
358 1 106.42 17.5347 9.93511 11.7728 
357 1 106.42 15.8469 7.97627 11.6963 
344 1 106.42 19.5928 9.85197 13.915 
368 1 106.42 3.89485 13.6044 13.756 
462 1 106.42 2.13583 13.9676 15.9911 
369 1 106.42 7.78882 11.8399 11.543 
372 1 106.42 7.64319 13.7835 13.7057 
466 1 106.42 5.91724 13.7964 15.8084 
370 1 106.42 9.58247 13.5596 11.7379 
393 1 106.42 11.6648 15.5195 11.5682 
373 1 106.42 11.7448 12.1302 11.6106 
376 1 106.42 11.7095 13.8622 13.6515 
391 1 106.42 9.80949 15.5093 13.8448 
374 1 106.42 13.7909 13.6763 11.8625 
397 1 106.42 15.7799 15.5386 11.8331 
380 1 106.42 15.7789 13.5283 13.578 
477 1 106.42 15.3965 12.1784 15.8554 
378 1 106.42 17.7473 13.8156 11.7011 
379 1 106.42 17.7956 11.9369 13.8077 
364 1 106.42 19.8282 13.8558 13.725 
481 1 106.42 19.8063 15.6863 15.97 
399 1 106.42 17.2889 15.856 13.7345 
478 1 106.42 17.5368 13.8005 15.834 
382 1 106.42 2.20199 17.6308 12.1573 
401 1 106.42 0.193391 19.4424 15.7465 
383 1 106.42 2.19663 15.5961 13.7118 
482 1 106.42 2.05527 17.7198 15.6586 
387 1 106.42 5.8138 15.5787 13.7491 
388 1 106.42 4.18931 17.8314 13.8346 
486 1 106.42 5.87356 17.8572 15.6808 
392 1 106.42 7.72003 17.861 13.6509 
311 1 106.42 10.0034 19.7316 13.5714 
396 1 106.42 11.7892 17.5625 13.4454 
490 1 106.42 9.52912 17.6366 15.4467 
317 1 106.42 15.7837 19.7816 11.7562 
315 1 106.42 13.5205 19.7164 13.7046 
395 1 106.42 13.5873 15.6316 13.747 
494 1 106.42 13.4994 17.7263 15.8514 
497 1 106.42 15.4255 15.5089 15.7182 
400 1 106.42 15.4664 17.8249 13.9358 
301 1 106.42 19.894 19.2695 11.9805 
398 1 106.42 17.3278 17.6093 11.9578 
319 1 106.42 17.9108 19.7579 13.512 
384 1 106.42 19.7174 17.3789 13.9918 
498 1 106.42 17.3558 17.5141 15.5111 
2 1 106.42 1.97458 2.07514 19.299 
402 1 106.42 1.84214 1.73357 15.6812 
408 1 106.42 3.86822 2.06048 17.4015 
423 1 106.42 1.78496 4.16268 17.524 
29 1 106.42 7.86252 4.01938 19.3118 
5 1 106.42 3.92906 0.0192524 19.616 
412 1 106.42 8.112 1.98264 18.0548 
427 1 106.42 5.92685 3.67708 17.718 
410 1 106.42 9.79435 2.23629 15.4373 
429 1 106.42 7.72985 3.79816 15.8793 
10 1 106.42 9.89696 1.98349 19.7565 
416 1 106.42 11.5233 1.86101 17.4996 
411 1 106.42 9.52311 -0.0989808 17.6629 
415 1 106.42 13.6836 -0.114809 17.7957 
17 1 106.42 15.5363 0.111026 19.7592 
404 1 106.42 19.6448 1.94668 17.7172 
420 1 106.42 15.6311 1.98856 17.6027 
419 1 106.42 17.637 -0.149047 17.5918 
439 1 106.42 17.6591 4.03941 17.8954 
22 1 106.42 2.01819 5.91902 19.4932 
443 1 106.42 1.98817 7.84886 17.6534 
428 1 106.42 4.22431 5.76842 17.7118 
424 1 106.42 -0.286935 5.98501 17.664 
45 1 106.42 4.09832 7.63457 19.6694 
26 1 106.42 6.03585 5.61929 19.4026 
33 1 106.42 11.8938 3.70827 19.4608 
30 1 106.42 9.75108 6.07375 19.371 
431 1 106.42 9.77944 4.04413 17.6563 
432 1 106.42 7.94992 6.01982 17.4115 
451 1 106.42 10.0026 8.17639 17.2882 
34 1 106.42 13.9591 5.70463 19.7395 
436 1 106.42 11.6913 6.03122 17.6112 
435 1 106.42 13.5342 3.89927 17.3067 
455 1 106.42 14.068 7.68108 17.6679 
38 1 106.42 17.7283 6.04832 19.6948 
440 1 106.42 15.5818 5.73634 17.7676 
42 1 106.42 2.15911 9.6874 19.58 
442 1 106.42 2.08812 9.8501 15.6465 
445 1 106.42 4.11723 7.8244 15.8447 
444 1 106.42 -0.238904 9.69409 17.0652 
61 1 106.42 0.226234 11.6693 19.6467 
69 1 106.42 7.84342 11.8462 19.4555 
446 1 106.42 5.83483 9.70917 15.6963 
448 1 106.42 3.91859 9.77809 17.6601 
447 1 106.42 5.78421 7.71214 17.7335 
50 1 106.42 9.78389 9.61005 19.9659 
450 1 106.42 9.80715 9.89019 15.4022 
452 1 106.42 7.836 9.73999 17.6447 
501 2 1.01 9.9697 9.64837 18.2548 
471 1 106.42 9.76093 11.7325 17.8445 
454 1 106.42 14.0079 9.70397 15.8169 
456 1 106.42 12.0372 9.88484 18.0961 
460 1 106.42 15.668 10.1544 17.6989 
41 1 106.42 19.6833 7.85377 19.6585 
459 1 106.42 17.5164 8.11166 17.6358 
58 1 106.42 17.8694 9.91569 19.5897 
458 1 106.42 17.4706 10.307 15.5982 
441 1 106.42 19.4089 7.52411 15.7108 
461 1 106.42 0.159906 12.1204 15.823 
463 1 106.42 1.97011 11.5803 17.5868 
468 1 106.42 3.94496 13.907 17.8789 
66 1 106.42 5.99614 14.0666 19.8279 
485 1 106.42 3.90443 15.9144 15.6114 
467 1 106.42 5.99498 11.4454 17.5745 
85 1 106.42 3.93225 15.8501 19.7666 
70 1 106.42 9.53103 13.923 19.0384 
469 1 106.42 7.83759 11.652 15.6684 
470 1 106.42 9.68421 13.6435 15.7939 
472 1 106.42 7.44233 13.8713 17.6099 
489 1 106.42 7.78957 15.8351 15.4732 
491 1 106.42 9.66247 16.0337 17.4383 
473 1 106.42 11.6648 11.7785 15.9684 
474 1 106.42 13.4477 13.7105 15.8948 
476 1 106.42 11.5693 13.8686 17.5901 
475 1 106.42 13.6575 11.9067 17.8495 
480 1 106.42 15.392 13.9625 17.676 
479 1 106.42 17.6777 12.0045 17.6461 
78 1 106.42 17.5024 13.7302 19.6945 
464 1 106.42 19.6752 13.7988 17.7014 
1 1 106.42 0.0717758 19.7776 19.6417 
483 1 106.42 1.7059 15.5642 17.9302 
403 1 106.42 1.94376 19.4861 17.7952 
488 1 106.42 3.83823 17.6267 17.7838 
405 1 106.42 4.03128 19.4756 15.822 
9 1 106.42 7.78043 19.548 19.7577 
407 1 106.42 5.95625 19.8599 17.692 
487 1 106.42 5.83272 15.9998 17.5969 
86 1 106.42 5.71754 17.7341 19.5474 
93 1 106.42 11.4637 15.7685 19.8855 
493 1 106.42 11.5667 15.8839 15.6539 
492 1 106.42 7.7721 17.6459 17.574 
496 1 106.42 11.6088 17.8492 17.69 
13 1 106.42 11.5364 19.8321 19.6994 
94 1 106.42 13.6148 17.6963 19.7737 
495 1 106.42 13.467 15.8841 17.7471 
500 1 106.42 15.738 17.726 17.6333 
97 1 106.42 15.5849 15.7352 19.6568 
499 1 106.42 17.86 15.6873 17.7965 
484 1 106.42 19.5796 17.6199 17.6458 
98 1 106.42 17.5777 17.8315 19.506 
