# PdH_x; x = 0.4
2867 atoms
2 atom types
0.0000000000000000e+00 3.3314366056000001e+01 xlo xhi
0.0000000000000000e+00 3.3314366056000001e+01 ylo yhi
0.0000000000000000e+00 3.3314366056000001e+01 zlo zhi

Atoms

1 1 0 0 0 
2 1 1.95715 1.95715 0 
3 1 1.95715 0 1.95715 
4 1 0 1.95715 1.95715 
5 1 3.9143 0 0 
6 1 5.87144 1.95715 0 
7 1 5.87144 0 1.95715 
8 1 3.9143 1.95715 1.95715 
9 1 7.82859 0 0 
10 1 9.78574 1.95715 0 
11 1 9.78574 0 1.95715 
12 1 7.82859 1.95715 1.95715 
13 1 11.7429 0 0 
14 1 13.7 1.95715 0 
15 1 13.7 0 1.95715 
16 1 11.7429 1.95715 1.95715 
17 1 15.6572 0 0 
18 1 17.6143 1.95715 0 
19 1 17.6143 0 1.95715 
20 1 15.6572 1.95715 1.95715 
21 1 19.5715 0 0 
22 1 21.5286 1.95715 0 
23 1 21.5286 0 1.95715 
24 1 19.5715 1.95715 1.95715 
25 1 23.4858 0 0 
26 1 25.4429 1.95715 0 
27 1 25.4429 0 1.95715 
28 1 23.4858 1.95715 1.95715 
29 1 27.4001 0 0 
30 1 29.3572 1.95715 0 
31 1 29.3572 0 1.95715 
32 1 27.4001 1.95715 1.95715 
33 1 0 3.9143 0 
34 1 1.95715 5.87144 0 
35 1 1.95715 3.9143 1.95715 
36 1 0 5.87144 1.95715 
37 1 3.9143 3.9143 0 
38 1 5.87144 5.87144 0 
39 1 5.87144 3.9143 1.95715 
40 1 3.9143 5.87144 1.95715 
41 1 7.82859 3.9143 0 
42 1 9.78574 5.87144 0 
43 1 9.78574 3.9143 1.95715 
44 1 7.82859 5.87144 1.95715 
45 1 11.7429 3.9143 0 
46 1 13.7 5.87144 0 
47 1 13.7 3.9143 1.95715 
48 1 11.7429 5.87144 1.95715 
49 1 15.6572 3.9143 0 
50 1 17.6143 5.87144 0 
51 1 17.6143 3.9143 1.95715 
52 1 15.6572 5.87144 1.95715 
53 1 19.5715 3.9143 0 
54 1 21.5286 5.87144 0 
55 1 21.5286 3.9143 1.95715 
56 1 19.5715 5.87144 1.95715 
57 1 23.4858 3.9143 0 
58 1 25.4429 5.87144 0 
59 1 25.4429 3.9143 1.95715 
60 1 23.4858 5.87144 1.95715 
61 1 27.4001 3.9143 0 
62 1 29.3572 5.87144 0 
63 1 29.3572 3.9143 1.95715 
64 1 27.4001 5.87144 1.95715 
65 1 0 7.82859 0 
66 1 1.95715 9.78574 0 
67 1 1.95715 7.82859 1.95715 
68 1 0 9.78574 1.95715 
69 1 3.9143 7.82859 0 
70 1 5.87144 9.78574 0 
71 1 5.87144 7.82859 1.95715 
72 1 3.9143 9.78574 1.95715 
73 1 7.82859 7.82859 0 
74 1 9.78574 9.78574 0 
75 1 9.78574 7.82859 1.95715 
76 1 7.82859 9.78574 1.95715 
77 1 11.7429 7.82859 0 
78 1 13.7 9.78574 0 
79 1 13.7 7.82859 1.95715 
80 1 11.7429 9.78574 1.95715 
81 1 15.6572 7.82859 0 
82 1 17.6143 9.78574 0 
83 1 17.6143 7.82859 1.95715 
84 1 15.6572 9.78574 1.95715 
85 1 19.5715 7.82859 0 
86 1 21.5286 9.78574 0 
87 1 21.5286 7.82859 1.95715 
88 1 19.5715 9.78574 1.95715 
89 1 23.4858 7.82859 0 
90 1 25.4429 9.78574 0 
91 1 25.4429 7.82859 1.95715 
92 1 23.4858 9.78574 1.95715 
93 1 27.4001 7.82859 0 
94 1 29.3572 9.78574 0 
95 1 29.3572 7.82859 1.95715 
96 1 27.4001 9.78574 1.95715 
97 1 0 11.7429 0 
98 1 1.95715 13.7 0 
99 1 1.95715 11.7429 1.95715 
100 1 0 13.7 1.95715 
101 1 3.9143 11.7429 0 
102 1 5.87144 13.7 0 
103 1 5.87144 11.7429 1.95715 
104 1 3.9143 13.7 1.95715 
105 1 7.82859 11.7429 0 
106 1 9.78574 13.7 0 
107 1 9.78574 11.7429 1.95715 
108 1 7.82859 13.7 1.95715 
109 1 11.7429 11.7429 0 
110 1 13.7 13.7 0 
111 1 13.7 11.7429 1.95715 
112 1 11.7429 13.7 1.95715 
113 1 15.6572 11.7429 0 
114 1 17.6143 13.7 0 
115 1 17.6143 11.7429 1.95715 
116 1 15.6572 13.7 1.95715 
117 1 19.5715 11.7429 0 
118 1 21.5286 13.7 0 
119 1 21.5286 11.7429 1.95715 
120 1 19.5715 13.7 1.95715 
121 1 23.4858 11.7429 0 
122 1 25.4429 13.7 0 
123 1 25.4429 11.7429 1.95715 
124 1 23.4858 13.7 1.95715 
125 1 27.4001 11.7429 0 
126 1 29.3572 13.7 0 
127 1 29.3572 11.7429 1.95715 
128 1 27.4001 13.7 1.95715 
129 1 0 15.6572 0 
130 1 1.95715 17.6143 0 
131 1 1.95715 15.6572 1.95715 
132 1 0 17.6143 1.95715 
133 1 3.9143 15.6572 0 
134 1 5.87144 17.6143 0 
135 1 5.87144 15.6572 1.95715 
136 1 3.9143 17.6143 1.95715 
137 1 7.82859 15.6572 0 
138 1 9.78574 17.6143 0 
139 1 9.78574 15.6572 1.95715 
140 1 7.82859 17.6143 1.95715 
141 1 11.7429 15.6572 0 
142 1 13.7 17.6143 0 
143 1 13.7 15.6572 1.95715 
144 1 11.7429 17.6143 1.95715 
145 1 15.6572 15.6572 0 
146 1 17.6143 17.6143 0 
147 1 17.6143 15.6572 1.95715 
148 1 15.6572 17.6143 1.95715 
149 1 19.5715 15.6572 0 
150 1 21.5286 17.6143 0 
151 1 21.5286 15.6572 1.95715 
152 1 19.5715 17.6143 1.95715 
153 1 23.4858 15.6572 0 
154 1 25.4429 17.6143 0 
155 1 25.4429 15.6572 1.95715 
156 1 23.4858 17.6143 1.95715 
157 1 27.4001 15.6572 0 
158 1 29.3572 17.6143 0 
159 1 29.3572 15.6572 1.95715 
160 1 27.4001 17.6143 1.95715 
161 1 0 19.5715 0 
162 1 1.95715 21.5286 0 
163 1 1.95715 19.5715 1.95715 
164 1 0 21.5286 1.95715 
165 1 3.9143 19.5715 0 
166 1 5.87144 21.5286 0 
167 1 5.87144 19.5715 1.95715 
168 1 3.9143 21.5286 1.95715 
169 1 7.82859 19.5715 0 
170 1 9.78574 21.5286 0 
171 1 9.78574 19.5715 1.95715 
172 1 7.82859 21.5286 1.95715 
173 1 11.7429 19.5715 0 
174 1 13.7 21.5286 0 
175 1 13.7 19.5715 1.95715 
176 1 11.7429 21.5286 1.95715 
177 1 15.6572 19.5715 0 
178 1 17.6143 21.5286 0 
179 1 17.6143 19.5715 1.95715 
180 1 15.6572 21.5286 1.95715 
181 1 19.5715 19.5715 0 
182 1 21.5286 21.5286 0 
183 1 21.5286 19.5715 1.95715 
184 1 19.5715 21.5286 1.95715 
185 1 23.4858 19.5715 0 
186 1 25.4429 21.5286 0 
187 1 25.4429 19.5715 1.95715 
188 1 23.4858 21.5286 1.95715 
189 1 27.4001 19.5715 0 
190 1 29.3572 21.5286 0 
191 1 29.3572 19.5715 1.95715 
192 1 27.4001 21.5286 1.95715 
193 1 0 23.4858 0 
194 1 1.95715 25.4429 0 
195 1 1.95715 23.4858 1.95715 
196 1 0 25.4429 1.95715 
197 1 3.9143 23.4858 0 
198 1 5.87144 25.4429 0 
199 1 5.87144 23.4858 1.95715 
200 1 3.9143 25.4429 1.95715 
201 1 7.82859 23.4858 0 
202 1 9.78574 25.4429 0 
203 1 9.78574 23.4858 1.95715 
204 1 7.82859 25.4429 1.95715 
205 1 11.7429 23.4858 0 
206 1 13.7 25.4429 0 
207 1 13.7 23.4858 1.95715 
208 1 11.7429 25.4429 1.95715 
209 1 15.6572 23.4858 0 
210 1 17.6143 25.4429 0 
211 1 17.6143 23.4858 1.95715 
212 1 15.6572 25.4429 1.95715 
213 1 19.5715 23.4858 0 
214 1 21.5286 25.4429 0 
215 1 21.5286 23.4858 1.95715 
216 1 19.5715 25.4429 1.95715 
217 1 23.4858 23.4858 0 
218 1 25.4429 25.4429 0 
219 1 25.4429 23.4858 1.95715 
220 1 23.4858 25.4429 1.95715 
221 1 27.4001 23.4858 0 
222 1 29.3572 25.4429 0 
223 1 29.3572 23.4858 1.95715 
224 1 27.4001 25.4429 1.95715 
225 1 0 27.4001 0 
226 1 1.95715 29.3572 0 
227 1 1.95715 27.4001 1.95715 
228 1 0 29.3572 1.95715 
229 1 3.9143 27.4001 0 
230 1 5.87144 29.3572 0 
231 1 5.87144 27.4001 1.95715 
232 1 3.9143 29.3572 1.95715 
233 1 7.82859 27.4001 0 
234 1 9.78574 29.3572 0 
235 1 9.78574 27.4001 1.95715 
236 1 7.82859 29.3572 1.95715 
237 1 11.7429 27.4001 0 
238 1 13.7 29.3572 0 
239 1 13.7 27.4001 1.95715 
240 1 11.7429 29.3572 1.95715 
241 1 15.6572 27.4001 0 
242 1 17.6143 29.3572 0 
243 1 17.6143 27.4001 1.95715 
244 1 15.6572 29.3572 1.95715 
245 1 19.5715 27.4001 0 
246 1 21.5286 29.3572 0 
247 1 21.5286 27.4001 1.95715 
248 1 19.5715 29.3572 1.95715 
249 1 23.4858 27.4001 0 
250 1 25.4429 29.3572 0 
251 1 25.4429 27.4001 1.95715 
252 1 23.4858 29.3572 1.95715 
253 1 27.4001 27.4001 0 
254 1 29.3572 29.3572 0 
255 1 29.3572 27.4001 1.95715 
256 1 27.4001 29.3572 1.95715 
257 1 0 0 3.9143 
258 1 1.95715 1.95715 3.9143 
259 1 1.95715 0 5.87144 
260 1 0 1.95715 5.87144 
261 1 3.9143 0 3.9143 
262 1 5.87144 1.95715 3.9143 
263 1 5.87144 0 5.87144 
264 1 3.9143 1.95715 5.87144 
265 1 7.82859 0 3.9143 
266 1 9.78574 1.95715 3.9143 
267 1 9.78574 0 5.87144 
268 1 7.82859 1.95715 5.87144 
269 1 11.7429 0 3.9143 
270 1 13.7 1.95715 3.9143 
271 1 13.7 0 5.87144 
272 1 11.7429 1.95715 5.87144 
273 1 15.6572 0 3.9143 
274 1 17.6143 1.95715 3.9143 
275 1 17.6143 0 5.87144 
276 1 15.6572 1.95715 5.87144 
277 1 19.5715 0 3.9143 
278 1 21.5286 1.95715 3.9143 
279 1 21.5286 0 5.87144 
280 1 19.5715 1.95715 5.87144 
281 1 23.4858 0 3.9143 
282 1 25.4429 1.95715 3.9143 
283 1 25.4429 0 5.87144 
284 1 23.4858 1.95715 5.87144 
285 1 27.4001 0 3.9143 
286 1 29.3572 1.95715 3.9143 
287 1 29.3572 0 5.87144 
288 1 27.4001 1.95715 5.87144 
289 1 0 3.9143 3.9143 
290 1 1.95715 5.87144 3.9143 
291 1 1.95715 3.9143 5.87144 
292 1 0 5.87144 5.87144 
293 1 3.9143 3.9143 3.9143 
294 1 5.87144 5.87144 3.9143 
295 1 5.87144 3.9143 5.87144 
296 1 3.9143 5.87144 5.87144 
297 1 7.82859 3.9143 3.9143 
298 1 9.78574 5.87144 3.9143 
299 1 9.78574 3.9143 5.87144 
300 1 7.82859 5.87144 5.87144 
301 1 11.7429 3.9143 3.9143 
302 1 13.7 5.87144 3.9143 
303 1 13.7 3.9143 5.87144 
304 1 11.7429 5.87144 5.87144 
305 1 15.6572 3.9143 3.9143 
306 1 17.6143 5.87144 3.9143 
307 1 17.6143 3.9143 5.87144 
308 1 15.6572 5.87144 5.87144 
309 1 19.5715 3.9143 3.9143 
310 1 21.5286 5.87144 3.9143 
311 1 21.5286 3.9143 5.87144 
312 1 19.5715 5.87144 5.87144 
313 1 23.4858 3.9143 3.9143 
314 1 25.4429 5.87144 3.9143 
315 1 25.4429 3.9143 5.87144 
316 1 23.4858 5.87144 5.87144 
317 1 27.4001 3.9143 3.9143 
318 1 29.3572 5.87144 3.9143 
319 1 29.3572 3.9143 5.87144 
320 1 27.4001 5.87144 5.87144 
321 1 0 7.82859 3.9143 
322 1 1.95715 9.78574 3.9143 
323 1 1.95715 7.82859 5.87144 
324 1 0 9.78574 5.87144 
325 1 3.9143 7.82859 3.9143 
326 1 5.87144 9.78574 3.9143 
327 1 5.87144 7.82859 5.87144 
328 1 3.9143 9.78574 5.87144 
329 1 7.82859 7.82859 3.9143 
330 1 9.78574 9.78574 3.9143 
331 1 9.78574 7.82859 5.87144 
332 1 7.82859 9.78574 5.87144 
333 1 11.7429 7.82859 3.9143 
334 1 13.7 9.78574 3.9143 
335 1 13.7 7.82859 5.87144 
336 1 11.7429 9.78574 5.87144 
337 1 15.6572 7.82859 3.9143 
338 1 17.6143 9.78574 3.9143 
339 1 17.6143 7.82859 5.87144 
340 1 15.6572 9.78574 5.87144 
341 1 19.5715 7.82859 3.9143 
342 1 21.5286 9.78574 3.9143 
343 1 21.5286 7.82859 5.87144 
344 1 19.5715 9.78574 5.87144 
345 1 23.4858 7.82859 3.9143 
346 1 25.4429 9.78574 3.9143 
347 1 25.4429 7.82859 5.87144 
348 1 23.4858 9.78574 5.87144 
349 1 27.4001 7.82859 3.9143 
350 1 29.3572 9.78574 3.9143 
351 1 29.3572 7.82859 5.87144 
352 1 27.4001 9.78574 5.87144 
353 1 0 11.7429 3.9143 
354 1 1.95715 13.7 3.9143 
355 1 1.95715 11.7429 5.87144 
356 1 0 13.7 5.87144 
357 1 3.9143 11.7429 3.9143 
358 1 5.87144 13.7 3.9143 
359 1 5.87144 11.7429 5.87144 
360 1 3.9143 13.7 5.87144 
361 1 7.82859 11.7429 3.9143 
362 1 9.78574 13.7 3.9143 
363 1 9.78574 11.7429 5.87144 
364 1 7.82859 13.7 5.87144 
365 1 11.7429 11.7429 3.9143 
366 1 13.7 13.7 3.9143 
367 1 13.7 11.7429 5.87144 
368 1 11.7429 13.7 5.87144 
369 1 15.6572 11.7429 3.9143 
370 1 17.6143 13.7 3.9143 
371 1 17.6143 11.7429 5.87144 
372 1 15.6572 13.7 5.87144 
373 1 19.5715 11.7429 3.9143 
374 1 21.5286 13.7 3.9143 
375 1 21.5286 11.7429 5.87144 
376 1 19.5715 13.7 5.87144 
377 1 23.4858 11.7429 3.9143 
378 1 25.4429 13.7 3.9143 
379 1 25.4429 11.7429 5.87144 
380 1 23.4858 13.7 5.87144 
381 1 27.4001 11.7429 3.9143 
382 1 29.3572 13.7 3.9143 
383 1 29.3572 11.7429 5.87144 
384 1 27.4001 13.7 5.87144 
385 1 0 15.6572 3.9143 
386 1 1.95715 17.6143 3.9143 
387 1 1.95715 15.6572 5.87144 
388 1 0 17.6143 5.87144 
389 1 3.9143 15.6572 3.9143 
390 1 5.87144 17.6143 3.9143 
391 1 5.87144 15.6572 5.87144 
392 1 3.9143 17.6143 5.87144 
393 1 7.82859 15.6572 3.9143 
394 1 9.78574 17.6143 3.9143 
395 1 9.78574 15.6572 5.87144 
396 1 7.82859 17.6143 5.87144 
397 1 11.7429 15.6572 3.9143 
398 1 13.7 17.6143 3.9143 
399 1 13.7 15.6572 5.87144 
400 1 11.7429 17.6143 5.87144 
401 1 15.6572 15.6572 3.9143 
402 1 17.6143 17.6143 3.9143 
403 1 17.6143 15.6572 5.87144 
404 1 15.6572 17.6143 5.87144 
405 1 19.5715 15.6572 3.9143 
406 1 21.5286 17.6143 3.9143 
407 1 21.5286 15.6572 5.87144 
408 1 19.5715 17.6143 5.87144 
409 1 23.4858 15.6572 3.9143 
410 1 25.4429 17.6143 3.9143 
411 1 25.4429 15.6572 5.87144 
412 1 23.4858 17.6143 5.87144 
413 1 27.4001 15.6572 3.9143 
414 1 29.3572 17.6143 3.9143 
415 1 29.3572 15.6572 5.87144 
416 1 27.4001 17.6143 5.87144 
417 1 0 19.5715 3.9143 
418 1 1.95715 21.5286 3.9143 
419 1 1.95715 19.5715 5.87144 
420 1 0 21.5286 5.87144 
421 1 3.9143 19.5715 3.9143 
422 1 5.87144 21.5286 3.9143 
423 1 5.87144 19.5715 5.87144 
424 1 3.9143 21.5286 5.87144 
425 1 7.82859 19.5715 3.9143 
426 1 9.78574 21.5286 3.9143 
427 1 9.78574 19.5715 5.87144 
428 1 7.82859 21.5286 5.87144 
429 1 11.7429 19.5715 3.9143 
430 1 13.7 21.5286 3.9143 
431 1 13.7 19.5715 5.87144 
432 1 11.7429 21.5286 5.87144 
433 1 15.6572 19.5715 3.9143 
434 1 17.6143 21.5286 3.9143 
435 1 17.6143 19.5715 5.87144 
436 1 15.6572 21.5286 5.87144 
437 1 19.5715 19.5715 3.9143 
438 1 21.5286 21.5286 3.9143 
439 1 21.5286 19.5715 5.87144 
440 1 19.5715 21.5286 5.87144 
441 1 23.4858 19.5715 3.9143 
442 1 25.4429 21.5286 3.9143 
443 1 25.4429 19.5715 5.87144 
444 1 23.4858 21.5286 5.87144 
445 1 27.4001 19.5715 3.9143 
446 1 29.3572 21.5286 3.9143 
447 1 29.3572 19.5715 5.87144 
448 1 27.4001 21.5286 5.87144 
449 1 0 23.4858 3.9143 
450 1 1.95715 25.4429 3.9143 
451 1 1.95715 23.4858 5.87144 
452 1 0 25.4429 5.87144 
453 1 3.9143 23.4858 3.9143 
454 1 5.87144 25.4429 3.9143 
455 1 5.87144 23.4858 5.87144 
456 1 3.9143 25.4429 5.87144 
457 1 7.82859 23.4858 3.9143 
458 1 9.78574 25.4429 3.9143 
459 1 9.78574 23.4858 5.87144 
460 1 7.82859 25.4429 5.87144 
461 1 11.7429 23.4858 3.9143 
462 1 13.7 25.4429 3.9143 
463 1 13.7 23.4858 5.87144 
464 1 11.7429 25.4429 5.87144 
465 1 15.6572 23.4858 3.9143 
466 1 17.6143 25.4429 3.9143 
467 1 17.6143 23.4858 5.87144 
468 1 15.6572 25.4429 5.87144 
469 1 19.5715 23.4858 3.9143 
470 1 21.5286 25.4429 3.9143 
471 1 21.5286 23.4858 5.87144 
472 1 19.5715 25.4429 5.87144 
473 1 23.4858 23.4858 3.9143 
474 1 25.4429 25.4429 3.9143 
475 1 25.4429 23.4858 5.87144 
476 1 23.4858 25.4429 5.87144 
477 1 27.4001 23.4858 3.9143 
478 1 29.3572 25.4429 3.9143 
479 1 29.3572 23.4858 5.87144 
480 1 27.4001 25.4429 5.87144 
481 1 0 27.4001 3.9143 
482 1 1.95715 29.3572 3.9143 
483 1 1.95715 27.4001 5.87144 
484 1 0 29.3572 5.87144 
485 1 3.9143 27.4001 3.9143 
486 1 5.87144 29.3572 3.9143 
487 1 5.87144 27.4001 5.87144 
488 1 3.9143 29.3572 5.87144 
489 1 7.82859 27.4001 3.9143 
490 1 9.78574 29.3572 3.9143 
491 1 9.78574 27.4001 5.87144 
492 1 7.82859 29.3572 5.87144 
493 1 11.7429 27.4001 3.9143 
494 1 13.7 29.3572 3.9143 
495 1 13.7 27.4001 5.87144 
496 1 11.7429 29.3572 5.87144 
497 1 15.6572 27.4001 3.9143 
498 1 17.6143 29.3572 3.9143 
499 1 17.6143 27.4001 5.87144 
500 1 15.6572 29.3572 5.87144 
501 1 19.5715 27.4001 3.9143 
502 1 21.5286 29.3572 3.9143 
503 1 21.5286 27.4001 5.87144 
504 1 19.5715 29.3572 5.87144 
505 1 23.4858 27.4001 3.9143 
506 1 25.4429 29.3572 3.9143 
507 1 25.4429 27.4001 5.87144 
508 1 23.4858 29.3572 5.87144 
509 1 27.4001 27.4001 3.9143 
510 1 29.3572 29.3572 3.9143 
511 1 29.3572 27.4001 5.87144 
512 1 27.4001 29.3572 5.87144 
513 1 0 0 7.82859 
514 1 1.95715 1.95715 7.82859 
515 1 1.95715 0 9.78574 
516 1 0 1.95715 9.78574 
517 1 3.9143 0 7.82859 
518 1 5.87144 1.95715 7.82859 
519 1 5.87144 0 9.78574 
520 1 3.9143 1.95715 9.78574 
521 1 7.82859 0 7.82859 
522 1 9.78574 1.95715 7.82859 
523 1 9.78574 0 9.78574 
524 1 7.82859 1.95715 9.78574 
525 1 11.7429 0 7.82859 
526 1 13.7 1.95715 7.82859 
527 1 13.7 0 9.78574 
528 1 11.7429 1.95715 9.78574 
529 1 15.6572 0 7.82859 
530 1 17.6143 1.95715 7.82859 
531 1 17.6143 0 9.78574 
532 1 15.6572 1.95715 9.78574 
533 1 19.5715 0 7.82859 
534 1 21.5286 1.95715 7.82859 
535 1 21.5286 0 9.78574 
536 1 19.5715 1.95715 9.78574 
537 1 23.4858 0 7.82859 
538 1 25.4429 1.95715 7.82859 
539 1 25.4429 0 9.78574 
540 1 23.4858 1.95715 9.78574 
541 1 27.4001 0 7.82859 
542 1 29.3572 1.95715 7.82859 
543 1 29.3572 0 9.78574 
544 1 27.4001 1.95715 9.78574 
545 1 0 3.9143 7.82859 
546 1 1.95715 5.87144 7.82859 
547 1 1.95715 3.9143 9.78574 
548 1 0 5.87144 9.78574 
549 1 3.9143 3.9143 7.82859 
550 1 5.87144 5.87144 7.82859 
551 1 5.87144 3.9143 9.78574 
552 1 3.9143 5.87144 9.78574 
553 1 7.82859 3.9143 7.82859 
554 1 9.78574 5.87144 7.82859 
555 1 9.78574 3.9143 9.78574 
556 1 7.82859 5.87144 9.78574 
557 1 11.7429 3.9143 7.82859 
558 1 13.7 5.87144 7.82859 
559 1 13.7 3.9143 9.78574 
560 1 11.7429 5.87144 9.78574 
561 1 15.6572 3.9143 7.82859 
562 1 17.6143 5.87144 7.82859 
563 1 17.6143 3.9143 9.78574 
564 1 15.6572 5.87144 9.78574 
565 1 19.5715 3.9143 7.82859 
566 1 21.5286 5.87144 7.82859 
567 1 21.5286 3.9143 9.78574 
568 1 19.5715 5.87144 9.78574 
569 1 23.4858 3.9143 7.82859 
570 1 25.4429 5.87144 7.82859 
571 1 25.4429 3.9143 9.78574 
572 1 23.4858 5.87144 9.78574 
573 1 27.4001 3.9143 7.82859 
574 1 29.3572 5.87144 7.82859 
575 1 29.3572 3.9143 9.78574 
576 1 27.4001 5.87144 9.78574 
577 1 0 7.82859 7.82859 
578 1 1.95715 9.78574 7.82859 
579 1 1.95715 7.82859 9.78574 
580 1 0 9.78574 9.78574 
581 1 3.9143 7.82859 7.82859 
582 1 5.87144 9.78574 7.82859 
583 1 5.87144 7.82859 9.78574 
584 1 3.9143 9.78574 9.78574 
585 1 7.82859 7.82859 7.82859 
586 1 9.78574 9.78574 7.82859 
587 1 9.78574 7.82859 9.78574 
588 1 7.82859 9.78574 9.78574 
589 1 11.7429 7.82859 7.82859 
590 1 13.7 9.78574 7.82859 
591 1 13.7 7.82859 9.78574 
592 1 11.7429 9.78574 9.78574 
593 1 15.6572 7.82859 7.82859 
594 1 17.6143 9.78574 7.82859 
595 1 17.6143 7.82859 9.78574 
596 1 15.6572 9.78574 9.78574 
597 1 19.5715 7.82859 7.82859 
598 1 21.5286 9.78574 7.82859 
599 1 21.5286 7.82859 9.78574 
600 1 19.5715 9.78574 9.78574 
601 1 23.4858 7.82859 7.82859 
602 1 25.4429 9.78574 7.82859 
603 1 25.4429 7.82859 9.78574 
604 1 23.4858 9.78574 9.78574 
605 1 27.4001 7.82859 7.82859 
606 1 29.3572 9.78574 7.82859 
607 1 29.3572 7.82859 9.78574 
608 1 27.4001 9.78574 9.78574 
609 1 0 11.7429 7.82859 
610 1 1.95715 13.7 7.82859 
611 1 1.95715 11.7429 9.78574 
612 1 0 13.7 9.78574 
613 1 3.9143 11.7429 7.82859 
614 1 5.87144 13.7 7.82859 
615 1 5.87144 11.7429 9.78574 
616 1 3.9143 13.7 9.78574 
617 1 7.82859 11.7429 7.82859 
618 1 9.78574 13.7 7.82859 
619 1 9.78574 11.7429 9.78574 
620 1 7.82859 13.7 9.78574 
621 1 11.7429 11.7429 7.82859 
622 1 13.7 13.7 7.82859 
623 1 13.7 11.7429 9.78574 
624 1 11.7429 13.7 9.78574 
625 1 15.6572 11.7429 7.82859 
626 1 17.6143 13.7 7.82859 
627 1 17.6143 11.7429 9.78574 
628 1 15.6572 13.7 9.78574 
629 1 19.5715 11.7429 7.82859 
630 1 21.5286 13.7 7.82859 
631 1 21.5286 11.7429 9.78574 
632 1 19.5715 13.7 9.78574 
633 1 23.4858 11.7429 7.82859 
634 1 25.4429 13.7 7.82859 
635 1 25.4429 11.7429 9.78574 
636 1 23.4858 13.7 9.78574 
637 1 27.4001 11.7429 7.82859 
638 1 29.3572 13.7 7.82859 
639 1 29.3572 11.7429 9.78574 
640 1 27.4001 13.7 9.78574 
641 1 0 15.6572 7.82859 
642 1 1.95715 17.6143 7.82859 
643 1 1.95715 15.6572 9.78574 
644 1 0 17.6143 9.78574 
645 1 3.9143 15.6572 7.82859 
646 1 5.87144 17.6143 7.82859 
647 1 5.87144 15.6572 9.78574 
648 1 3.9143 17.6143 9.78574 
649 1 7.82859 15.6572 7.82859 
650 1 9.78574 17.6143 7.82859 
651 1 9.78574 15.6572 9.78574 
652 1 7.82859 17.6143 9.78574 
653 1 11.7429 15.6572 7.82859 
654 1 13.7 17.6143 7.82859 
655 1 13.7 15.6572 9.78574 
656 1 11.7429 17.6143 9.78574 
657 1 15.6572 15.6572 7.82859 
658 1 17.6143 17.6143 7.82859 
659 1 17.6143 15.6572 9.78574 
660 1 15.6572 17.6143 9.78574 
661 1 19.5715 15.6572 7.82859 
662 1 21.5286 17.6143 7.82859 
663 1 21.5286 15.6572 9.78574 
664 1 19.5715 17.6143 9.78574 
665 1 23.4858 15.6572 7.82859 
666 1 25.4429 17.6143 7.82859 
667 1 25.4429 15.6572 9.78574 
668 1 23.4858 17.6143 9.78574 
669 1 27.4001 15.6572 7.82859 
670 1 29.3572 17.6143 7.82859 
671 1 29.3572 15.6572 9.78574 
672 1 27.4001 17.6143 9.78574 
673 1 0 19.5715 7.82859 
674 1 1.95715 21.5286 7.82859 
675 1 1.95715 19.5715 9.78574 
676 1 0 21.5286 9.78574 
677 1 3.9143 19.5715 7.82859 
678 1 5.87144 21.5286 7.82859 
679 1 5.87144 19.5715 9.78574 
680 1 3.9143 21.5286 9.78574 
681 1 7.82859 19.5715 7.82859 
682 1 9.78574 21.5286 7.82859 
683 1 9.78574 19.5715 9.78574 
684 1 7.82859 21.5286 9.78574 
685 1 11.7429 19.5715 7.82859 
686 1 13.7 21.5286 7.82859 
687 1 13.7 19.5715 9.78574 
688 1 11.7429 21.5286 9.78574 
689 1 15.6572 19.5715 7.82859 
690 1 17.6143 21.5286 7.82859 
691 1 17.6143 19.5715 9.78574 
692 1 15.6572 21.5286 9.78574 
693 1 19.5715 19.5715 7.82859 
694 1 21.5286 21.5286 7.82859 
695 1 21.5286 19.5715 9.78574 
696 1 19.5715 21.5286 9.78574 
697 1 23.4858 19.5715 7.82859 
698 1 25.4429 21.5286 7.82859 
699 1 25.4429 19.5715 9.78574 
700 1 23.4858 21.5286 9.78574 
701 1 27.4001 19.5715 7.82859 
702 1 29.3572 21.5286 7.82859 
703 1 29.3572 19.5715 9.78574 
704 1 27.4001 21.5286 9.78574 
705 1 0 23.4858 7.82859 
706 1 1.95715 25.4429 7.82859 
707 1 1.95715 23.4858 9.78574 
708 1 0 25.4429 9.78574 
709 1 3.9143 23.4858 7.82859 
710 1 5.87144 25.4429 7.82859 
711 1 5.87144 23.4858 9.78574 
712 1 3.9143 25.4429 9.78574 
713 1 7.82859 23.4858 7.82859 
714 1 9.78574 25.4429 7.82859 
715 1 9.78574 23.4858 9.78574 
716 1 7.82859 25.4429 9.78574 
717 1 11.7429 23.4858 7.82859 
718 1 13.7 25.4429 7.82859 
719 1 13.7 23.4858 9.78574 
720 1 11.7429 25.4429 9.78574 
721 1 15.6572 23.4858 7.82859 
722 1 17.6143 25.4429 7.82859 
723 1 17.6143 23.4858 9.78574 
724 1 15.6572 25.4429 9.78574 
725 1 19.5715 23.4858 7.82859 
726 1 21.5286 25.4429 7.82859 
727 1 21.5286 23.4858 9.78574 
728 1 19.5715 25.4429 9.78574 
729 1 23.4858 23.4858 7.82859 
730 1 25.4429 25.4429 7.82859 
731 1 25.4429 23.4858 9.78574 
732 1 23.4858 25.4429 9.78574 
733 1 27.4001 23.4858 7.82859 
734 1 29.3572 25.4429 7.82859 
735 1 29.3572 23.4858 9.78574 
736 1 27.4001 25.4429 9.78574 
737 1 0 27.4001 7.82859 
738 1 1.95715 29.3572 7.82859 
739 1 1.95715 27.4001 9.78574 
740 1 0 29.3572 9.78574 
741 1 3.9143 27.4001 7.82859 
742 1 5.87144 29.3572 7.82859 
743 1 5.87144 27.4001 9.78574 
744 1 3.9143 29.3572 9.78574 
745 1 7.82859 27.4001 7.82859 
746 1 9.78574 29.3572 7.82859 
747 1 9.78574 27.4001 9.78574 
748 1 7.82859 29.3572 9.78574 
749 1 11.7429 27.4001 7.82859 
750 1 13.7 29.3572 7.82859 
751 1 13.7 27.4001 9.78574 
752 1 11.7429 29.3572 9.78574 
753 1 15.6572 27.4001 7.82859 
754 1 17.6143 29.3572 7.82859 
755 1 17.6143 27.4001 9.78574 
756 1 15.6572 29.3572 9.78574 
757 1 19.5715 27.4001 7.82859 
758 1 21.5286 29.3572 7.82859 
759 1 21.5286 27.4001 9.78574 
760 1 19.5715 29.3572 9.78574 
761 1 23.4858 27.4001 7.82859 
762 1 25.4429 29.3572 7.82859 
763 1 25.4429 27.4001 9.78574 
764 1 23.4858 29.3572 9.78574 
765 1 27.4001 27.4001 7.82859 
766 1 29.3572 29.3572 7.82859 
767 1 29.3572 27.4001 9.78574 
768 1 27.4001 29.3572 9.78574 
769 1 0 0 11.7429 
770 1 1.95715 1.95715 11.7429 
771 1 1.95715 0 13.7 
772 1 0 1.95715 13.7 
773 1 3.9143 0 11.7429 
774 1 5.87144 1.95715 11.7429 
775 1 5.87144 0 13.7 
776 1 3.9143 1.95715 13.7 
777 1 7.82859 0 11.7429 
778 1 9.78574 1.95715 11.7429 
779 1 9.78574 0 13.7 
780 1 7.82859 1.95715 13.7 
781 1 11.7429 0 11.7429 
782 1 13.7 1.95715 11.7429 
783 1 13.7 0 13.7 
784 1 11.7429 1.95715 13.7 
785 1 15.6572 0 11.7429 
786 1 17.6143 1.95715 11.7429 
787 1 17.6143 0 13.7 
788 1 15.6572 1.95715 13.7 
789 1 19.5715 0 11.7429 
790 1 21.5286 1.95715 11.7429 
791 1 21.5286 0 13.7 
792 1 19.5715 1.95715 13.7 
793 1 23.4858 0 11.7429 
794 1 25.4429 1.95715 11.7429 
795 1 25.4429 0 13.7 
796 1 23.4858 1.95715 13.7 
797 1 27.4001 0 11.7429 
798 1 29.3572 1.95715 11.7429 
799 1 29.3572 0 13.7 
800 1 27.4001 1.95715 13.7 
801 1 0 3.9143 11.7429 
802 1 1.95715 5.87144 11.7429 
803 1 1.95715 3.9143 13.7 
804 1 0 5.87144 13.7 
805 1 3.9143 3.9143 11.7429 
806 1 5.87144 5.87144 11.7429 
807 1 5.87144 3.9143 13.7 
808 1 3.9143 5.87144 13.7 
809 1 7.82859 3.9143 11.7429 
810 1 9.78574 5.87144 11.7429 
811 1 9.78574 3.9143 13.7 
812 1 7.82859 5.87144 13.7 
813 1 11.7429 3.9143 11.7429 
814 1 13.7 5.87144 11.7429 
815 1 13.7 3.9143 13.7 
816 1 11.7429 5.87144 13.7 
817 1 15.6572 3.9143 11.7429 
818 1 17.6143 5.87144 11.7429 
819 1 17.6143 3.9143 13.7 
820 1 15.6572 5.87144 13.7 
821 1 19.5715 3.9143 11.7429 
822 1 21.5286 5.87144 11.7429 
823 1 21.5286 3.9143 13.7 
824 1 19.5715 5.87144 13.7 
825 1 23.4858 3.9143 11.7429 
826 1 25.4429 5.87144 11.7429 
827 1 25.4429 3.9143 13.7 
828 1 23.4858 5.87144 13.7 
829 1 27.4001 3.9143 11.7429 
830 1 29.3572 5.87144 11.7429 
831 1 29.3572 3.9143 13.7 
832 1 27.4001 5.87144 13.7 
833 1 0 7.82859 11.7429 
834 1 1.95715 9.78574 11.7429 
835 1 1.95715 7.82859 13.7 
836 1 0 9.78574 13.7 
837 1 3.9143 7.82859 11.7429 
838 1 5.87144 9.78574 11.7429 
839 1 5.87144 7.82859 13.7 
840 1 3.9143 9.78574 13.7 
841 1 7.82859 7.82859 11.7429 
842 1 9.78574 9.78574 11.7429 
843 1 9.78574 7.82859 13.7 
844 1 7.82859 9.78574 13.7 
845 1 11.7429 7.82859 11.7429 
846 1 13.7 9.78574 11.7429 
847 1 13.7 7.82859 13.7 
848 1 11.7429 9.78574 13.7 
849 1 15.6572 7.82859 11.7429 
850 1 17.6143 9.78574 11.7429 
851 1 17.6143 7.82859 13.7 
852 1 15.6572 9.78574 13.7 
853 1 19.5715 7.82859 11.7429 
854 1 21.5286 9.78574 11.7429 
855 1 21.5286 7.82859 13.7 
856 1 19.5715 9.78574 13.7 
857 1 23.4858 7.82859 11.7429 
858 1 25.4429 9.78574 11.7429 
859 1 25.4429 7.82859 13.7 
860 1 23.4858 9.78574 13.7 
861 1 27.4001 7.82859 11.7429 
862 1 29.3572 9.78574 11.7429 
863 1 29.3572 7.82859 13.7 
864 1 27.4001 9.78574 13.7 
865 1 0 11.7429 11.7429 
866 1 1.95715 13.7 11.7429 
867 1 1.95715 11.7429 13.7 
868 1 0 13.7 13.7 
869 1 3.9143 11.7429 11.7429 
870 1 5.87144 13.7 11.7429 
871 1 5.87144 11.7429 13.7 
872 1 3.9143 13.7 13.7 
873 1 7.82859 11.7429 11.7429 
874 1 9.78574 13.7 11.7429 
875 1 9.78574 11.7429 13.7 
876 1 7.82859 13.7 13.7 
877 1 11.7429 11.7429 11.7429 
878 1 13.7 13.7 11.7429 
879 1 13.7 11.7429 13.7 
880 1 11.7429 13.7 13.7 
881 1 15.6572 11.7429 11.7429 
882 1 17.6143 13.7 11.7429 
883 1 17.6143 11.7429 13.7 
884 1 15.6572 13.7 13.7 
885 1 19.5715 11.7429 11.7429 
886 1 21.5286 13.7 11.7429 
887 1 21.5286 11.7429 13.7 
888 1 19.5715 13.7 13.7 
889 1 23.4858 11.7429 11.7429 
890 1 25.4429 13.7 11.7429 
891 1 25.4429 11.7429 13.7 
892 1 23.4858 13.7 13.7 
893 1 27.4001 11.7429 11.7429 
894 1 29.3572 13.7 11.7429 
895 1 29.3572 11.7429 13.7 
896 1 27.4001 13.7 13.7 
897 1 0 15.6572 11.7429 
898 1 1.95715 17.6143 11.7429 
899 1 1.95715 15.6572 13.7 
900 1 0 17.6143 13.7 
901 1 3.9143 15.6572 11.7429 
902 1 5.87144 17.6143 11.7429 
903 1 5.87144 15.6572 13.7 
904 1 3.9143 17.6143 13.7 
905 1 7.82859 15.6572 11.7429 
906 1 9.78574 17.6143 11.7429 
907 1 9.78574 15.6572 13.7 
908 1 7.82859 17.6143 13.7 
909 1 11.7429 15.6572 11.7429 
910 1 13.7 17.6143 11.7429 
911 1 13.7 15.6572 13.7 
912 1 11.7429 17.6143 13.7 
913 1 15.6572 15.6572 11.7429 
914 1 17.6143 17.6143 11.7429 
915 1 17.6143 15.6572 13.7 
916 1 15.6572 17.6143 13.7 
917 1 19.5715 15.6572 11.7429 
918 1 21.5286 17.6143 11.7429 
919 1 21.5286 15.6572 13.7 
920 1 19.5715 17.6143 13.7 
921 1 23.4858 15.6572 11.7429 
922 1 25.4429 17.6143 11.7429 
923 1 25.4429 15.6572 13.7 
924 1 23.4858 17.6143 13.7 
925 1 27.4001 15.6572 11.7429 
926 1 29.3572 17.6143 11.7429 
927 1 29.3572 15.6572 13.7 
928 1 27.4001 17.6143 13.7 
929 1 0 19.5715 11.7429 
930 1 1.95715 21.5286 11.7429 
931 1 1.95715 19.5715 13.7 
932 1 0 21.5286 13.7 
933 1 3.9143 19.5715 11.7429 
934 1 5.87144 21.5286 11.7429 
935 1 5.87144 19.5715 13.7 
936 1 3.9143 21.5286 13.7 
937 1 7.82859 19.5715 11.7429 
938 1 9.78574 21.5286 11.7429 
939 1 9.78574 19.5715 13.7 
940 1 7.82859 21.5286 13.7 
941 1 11.7429 19.5715 11.7429 
942 1 13.7 21.5286 11.7429 
943 1 13.7 19.5715 13.7 
944 1 11.7429 21.5286 13.7 
945 1 15.6572 19.5715 11.7429 
946 1 17.6143 21.5286 11.7429 
947 1 17.6143 19.5715 13.7 
948 1 15.6572 21.5286 13.7 
949 1 19.5715 19.5715 11.7429 
950 1 21.5286 21.5286 11.7429 
951 1 21.5286 19.5715 13.7 
952 1 19.5715 21.5286 13.7 
953 1 23.4858 19.5715 11.7429 
954 1 25.4429 21.5286 11.7429 
955 1 25.4429 19.5715 13.7 
956 1 23.4858 21.5286 13.7 
957 1 27.4001 19.5715 11.7429 
958 1 29.3572 21.5286 11.7429 
959 1 29.3572 19.5715 13.7 
960 1 27.4001 21.5286 13.7 
961 1 0 23.4858 11.7429 
962 1 1.95715 25.4429 11.7429 
963 1 1.95715 23.4858 13.7 
964 1 0 25.4429 13.7 
965 1 3.9143 23.4858 11.7429 
966 1 5.87144 25.4429 11.7429 
967 1 5.87144 23.4858 13.7 
968 1 3.9143 25.4429 13.7 
969 1 7.82859 23.4858 11.7429 
970 1 9.78574 25.4429 11.7429 
971 1 9.78574 23.4858 13.7 
972 1 7.82859 25.4429 13.7 
973 1 11.7429 23.4858 11.7429 
974 1 13.7 25.4429 11.7429 
975 1 13.7 23.4858 13.7 
976 1 11.7429 25.4429 13.7 
977 1 15.6572 23.4858 11.7429 
978 1 17.6143 25.4429 11.7429 
979 1 17.6143 23.4858 13.7 
980 1 15.6572 25.4429 13.7 
981 1 19.5715 23.4858 11.7429 
982 1 21.5286 25.4429 11.7429 
983 1 21.5286 23.4858 13.7 
984 1 19.5715 25.4429 13.7 
985 1 23.4858 23.4858 11.7429 
986 1 25.4429 25.4429 11.7429 
987 1 25.4429 23.4858 13.7 
988 1 23.4858 25.4429 13.7 
989 1 27.4001 23.4858 11.7429 
990 1 29.3572 25.4429 11.7429 
991 1 29.3572 23.4858 13.7 
992 1 27.4001 25.4429 13.7 
993 1 0 27.4001 11.7429 
994 1 1.95715 29.3572 11.7429 
995 1 1.95715 27.4001 13.7 
996 1 0 29.3572 13.7 
997 1 3.9143 27.4001 11.7429 
998 1 5.87144 29.3572 11.7429 
999 1 5.87144 27.4001 13.7 
1000 1 3.9143 29.3572 13.7 
1001 1 7.82859 27.4001 11.7429 
1002 1 9.78574 29.3572 11.7429 
1003 1 9.78574 27.4001 13.7 
1004 1 7.82859 29.3572 13.7 
1005 1 11.7429 27.4001 11.7429 
1006 1 13.7 29.3572 11.7429 
1007 1 13.7 27.4001 13.7 
1008 1 11.7429 29.3572 13.7 
1009 1 15.6572 27.4001 11.7429 
1010 1 17.6143 29.3572 11.7429 
1011 1 17.6143 27.4001 13.7 
1012 1 15.6572 29.3572 13.7 
1013 1 19.5715 27.4001 11.7429 
1014 1 21.5286 29.3572 11.7429 
1015 1 21.5286 27.4001 13.7 
1016 1 19.5715 29.3572 13.7 
1017 1 23.4858 27.4001 11.7429 
1018 1 25.4429 29.3572 11.7429 
1019 1 25.4429 27.4001 13.7 
1020 1 23.4858 29.3572 13.7 
1021 1 27.4001 27.4001 11.7429 
1022 1 29.3572 29.3572 11.7429 
1023 1 29.3572 27.4001 13.7 
1024 1 27.4001 29.3572 13.7 
1025 1 0 0 15.6572 
1026 1 1.95715 1.95715 15.6572 
1027 1 1.95715 0 17.6143 
1028 1 0 1.95715 17.6143 
1029 1 3.9143 0 15.6572 
1030 1 5.87144 1.95715 15.6572 
1031 1 5.87144 0 17.6143 
1032 1 3.9143 1.95715 17.6143 
1033 1 7.82859 0 15.6572 
1034 1 9.78574 1.95715 15.6572 
1035 1 9.78574 0 17.6143 
1036 1 7.82859 1.95715 17.6143 
1037 1 11.7429 0 15.6572 
1038 1 13.7 1.95715 15.6572 
1039 1 13.7 0 17.6143 
1040 1 11.7429 1.95715 17.6143 
1041 1 15.6572 0 15.6572 
1042 1 17.6143 1.95715 15.6572 
1043 1 17.6143 0 17.6143 
1044 1 15.6572 1.95715 17.6143 
1045 1 19.5715 0 15.6572 
1046 1 21.5286 1.95715 15.6572 
1047 1 21.5286 0 17.6143 
1048 1 19.5715 1.95715 17.6143 